 # File generated with Atomsk by Hao on 2022-12-06 18:19:02
 
         4096  atoms
           2  atom types
 
      0.000000000000      37.9895896912  xlo xhi
      0.000000000000      37.9895896912  ylo yhi
      0.000000000000      37.9895896912  zlo zhi
 
Masses
 
            1   10.81000000             # B
            2   74.92160000             # As
 
Atoms # atomic
 
1	1	0	0	0
2	1	0	9.497397423	9.497397423
3	1	9.497397423	0	9.497397423
4	1	9.497397423	9.497397423	0
5	1	0	0	18.99479485
6	1	0	9.497397423	28.49219227
7	1	9.497397423	0	28.49219227
8	1	9.497397423	9.497397423	18.99479485
9	1	0	18.99479485	0
10	1	0	28.49219227	9.497397423
11	1	9.497397423	18.99479485	9.497397423
12	1	9.497397423	28.49219227	0
13	1	0	18.99479485	18.99479485
14	1	0	28.49219227	28.49219227
15	1	9.497397423	18.99479485	28.49219227
16	1	9.497397423	28.49219227	18.99479485
17	1	18.99479485	0	0
18	1	18.99479485	9.497397423	9.497397423
19	1	28.49219227	0	9.497397423
20	1	28.49219227	9.497397423	0
21	1	18.99479485	0	18.99479485
22	1	18.99479485	9.497397423	28.49219227
23	1	28.49219227	0	28.49219227
24	1	28.49219227	9.497397423	18.99479485
25	1	18.99479485	18.99479485	0
26	1	18.99479485	28.49219227	9.497397423
27	1	28.49219227	18.99479485	9.497397423
28	1	28.49219227	28.49219227	0
29	1	18.99479485	18.99479485	18.99479485
30	1	18.99479485	28.49219227	28.49219227
31	1	28.49219227	18.99479485	28.49219227
32	1	28.49219227	28.49219227	18.99479485
33	1	0	2.374349356	2.374349356
34	1	0	11.87174678	11.87174678
35	1	9.497397423	2.374349356	11.87174678
36	1	9.497397423	11.87174678	2.374349356
37	1	0	2.374349356	21.3691442
38	1	0	11.87174678	30.86654162
39	1	9.497397423	2.374349356	30.86654162
40	1	9.497397423	11.87174678	21.3691442
41	1	0	21.3691442	2.374349356
42	1	0	30.86654162	11.87174678
43	1	9.497397423	21.3691442	11.87174678
44	1	9.497397423	30.86654162	2.374349356
45	1	0	21.3691442	21.3691442
46	1	0	30.86654162	30.86654162
47	1	9.497397423	21.3691442	30.86654162
48	1	9.497397423	30.86654162	21.3691442
49	1	18.99479485	2.374349356	2.374349356
50	1	18.99479485	11.87174678	11.87174678
51	1	28.49219227	2.374349356	11.87174678
52	1	28.49219227	11.87174678	2.374349356
53	1	18.99479485	2.374349356	21.3691442
54	1	18.99479485	11.87174678	30.86654162
55	1	28.49219227	2.374349356	30.86654162
56	1	28.49219227	11.87174678	21.3691442
57	1	18.99479485	21.3691442	2.374349356
58	1	18.99479485	30.86654162	11.87174678
59	1	28.49219227	21.3691442	11.87174678
60	1	28.49219227	30.86654162	2.374349356
61	1	18.99479485	21.3691442	21.3691442
62	1	18.99479485	30.86654162	30.86654162
63	1	28.49219227	21.3691442	30.86654162
64	1	28.49219227	30.86654162	21.3691442
65	1	0	4.748698711	4.748698711
66	1	0	14.24609613	14.24609613
67	1	9.497397423	4.748698711	14.24609613
68	1	9.497397423	14.24609613	4.748698711
69	1	0	4.748698711	23.74349356
70	1	0	14.24609613	33.24089098
71	1	9.497397423	4.748698711	33.24089098
72	1	9.497397423	14.24609613	23.74349356
73	1	0	23.74349356	4.748698711
74	1	0	33.24089098	14.24609613
75	1	9.497397423	23.74349356	14.24609613
76	1	9.497397423	33.24089098	4.748698711
77	1	0	23.74349356	23.74349356
78	1	0	33.24089098	33.24089098
79	1	9.497397423	23.74349356	33.24089098
80	1	9.497397423	33.24089098	23.74349356
81	1	18.99479485	4.748698711	4.748698711
82	1	18.99479485	14.24609613	14.24609613
83	1	28.49219227	4.748698711	14.24609613
84	1	28.49219227	14.24609613	4.748698711
85	1	18.99479485	4.748698711	23.74349356
86	1	18.99479485	14.24609613	33.24089098
87	1	28.49219227	4.748698711	33.24089098
88	1	28.49219227	14.24609613	23.74349356
89	1	18.99479485	23.74349356	4.748698711
90	1	18.99479485	33.24089098	14.24609613
91	1	28.49219227	23.74349356	14.24609613
92	1	28.49219227	33.24089098	4.748698711
93	1	18.99479485	23.74349356	23.74349356
94	1	18.99479485	33.24089098	33.24089098
95	1	28.49219227	23.74349356	33.24089098
96	1	28.49219227	33.24089098	23.74349356
97	1	0	7.123048067	7.123048067
98	1	0	16.62044549	16.62044549
99	1	9.497397423	7.123048067	16.62044549
100	1	9.497397423	16.62044549	7.123048067
101	1	0	7.123048067	26.11784291
102	1	0	16.62044549	35.61524034
103	1	9.497397423	7.123048067	35.61524034
104	1	9.497397423	16.62044549	26.11784291
105	1	0	26.11784291	7.123048067
106	1	0	35.61524034	16.62044549
107	1	9.497397423	26.11784291	16.62044549
108	1	9.497397423	35.61524034	7.123048067
109	1	0	26.11784291	26.11784291
110	1	0	35.61524034	35.61524034
111	1	9.497397423	26.11784291	35.61524034
112	1	9.497397423	35.61524034	26.11784291
113	1	18.99479485	7.123048067	7.123048067
114	1	18.99479485	16.62044549	16.62044549
115	1	28.49219227	7.123048067	16.62044549
116	1	28.49219227	16.62044549	7.123048067
117	1	18.99479485	7.123048067	26.11784291
118	1	18.99479485	16.62044549	35.61524034
119	1	28.49219227	7.123048067	35.61524034
120	1	28.49219227	16.62044549	26.11784291
121	1	18.99479485	26.11784291	7.123048067
122	1	18.99479485	35.61524034	16.62044549
123	1	28.49219227	26.11784291	16.62044549
124	1	28.49219227	35.61524034	7.123048067
125	1	18.99479485	26.11784291	26.11784291
126	1	18.99479485	35.61524034	35.61524034
127	1	28.49219227	26.11784291	35.61524034
128	1	28.49219227	35.61524034	26.11784291
129	1	2.374349356	0	2.374349356
130	1	2.374349356	9.497397423	11.87174678
131	1	11.87174678	0	11.87174678
132	1	11.87174678	9.497397423	2.374349356
133	1	2.374349356	0	21.3691442
134	1	2.374349356	9.497397423	30.86654162
135	1	11.87174678	0	30.86654162
136	1	11.87174678	9.497397423	21.3691442
137	1	2.374349356	18.99479485	2.374349356
138	1	2.374349356	28.49219227	11.87174678
139	1	11.87174678	18.99479485	11.87174678
140	1	11.87174678	28.49219227	2.374349356
141	1	2.374349356	18.99479485	21.3691442
142	1	2.374349356	28.49219227	30.86654162
143	1	11.87174678	18.99479485	30.86654162
144	1	11.87174678	28.49219227	21.3691442
145	1	21.3691442	0	2.374349356
146	1	21.3691442	9.497397423	11.87174678
147	1	30.86654162	0	11.87174678
148	1	30.86654162	9.497397423	2.374349356
149	1	21.3691442	0	21.3691442
150	1	21.3691442	9.497397423	30.86654162
151	1	30.86654162	0	30.86654162
152	1	30.86654162	9.497397423	21.3691442
153	1	21.3691442	18.99479485	2.374349356
154	1	21.3691442	28.49219227	11.87174678
155	1	30.86654162	18.99479485	11.87174678
156	1	30.86654162	28.49219227	2.374349356
157	1	21.3691442	18.99479485	21.3691442
158	1	21.3691442	28.49219227	30.86654162
159	1	30.86654162	18.99479485	30.86654162
160	1	30.86654162	28.49219227	21.3691442
161	1	2.374349356	2.374349356	4.748698711
162	1	2.374349356	11.87174678	14.24609613
163	1	11.87174678	2.374349356	14.24609613
164	1	11.87174678	11.87174678	4.748698711
165	1	2.374349356	2.374349356	23.74349356
166	1	2.374349356	11.87174678	33.24089098
167	1	11.87174678	2.374349356	33.24089098
168	1	11.87174678	11.87174678	23.74349356
169	1	2.374349356	21.3691442	4.748698711
170	1	2.374349356	30.86654162	14.24609613
171	1	11.87174678	21.3691442	14.24609613
172	1	11.87174678	30.86654162	4.748698711
173	1	2.374349356	21.3691442	23.74349356
174	1	2.374349356	30.86654162	33.24089098
175	1	11.87174678	21.3691442	33.24089098
176	1	11.87174678	30.86654162	23.74349356
177	1	21.3691442	2.374349356	4.748698711
178	1	21.3691442	11.87174678	14.24609613
179	1	30.86654162	2.374349356	14.24609613
180	1	30.86654162	11.87174678	4.748698711
181	1	21.3691442	2.374349356	23.74349356
182	1	21.3691442	11.87174678	33.24089098
183	1	30.86654162	2.374349356	33.24089098
184	1	30.86654162	11.87174678	23.74349356
185	1	21.3691442	21.3691442	4.748698711
186	1	21.3691442	30.86654162	14.24609613
187	1	30.86654162	21.3691442	14.24609613
188	1	30.86654162	30.86654162	4.748698711
189	1	21.3691442	21.3691442	23.74349356
190	1	21.3691442	30.86654162	33.24089098
191	1	30.86654162	21.3691442	33.24089098
192	1	30.86654162	30.86654162	23.74349356
193	1	2.374349356	4.748698711	7.123048067
194	1	2.374349356	14.24609613	16.62044549
195	1	11.87174678	4.748698711	16.62044549
196	1	11.87174678	14.24609613	7.123048067
197	1	2.374349356	4.748698711	26.11784291
198	1	2.374349356	14.24609613	35.61524034
199	1	11.87174678	4.748698711	35.61524034
200	1	11.87174678	14.24609613	26.11784291
201	1	2.374349356	23.74349356	7.123048067
202	1	2.374349356	33.24089098	16.62044549
203	1	11.87174678	23.74349356	16.62044549
204	1	11.87174678	33.24089098	7.123048067
205	1	2.374349356	23.74349356	26.11784291
206	1	2.374349356	33.24089098	35.61524034
207	1	11.87174678	23.74349356	35.61524034
208	1	11.87174678	33.24089098	26.11784291
209	1	21.3691442	4.748698711	7.123048067
210	1	21.3691442	14.24609613	16.62044549
211	1	30.86654162	4.748698711	16.62044549
212	1	30.86654162	14.24609613	7.123048067
213	1	21.3691442	4.748698711	26.11784291
214	1	21.3691442	14.24609613	35.61524034
215	1	30.86654162	4.748698711	35.61524034
216	1	30.86654162	14.24609613	26.11784291
217	1	21.3691442	23.74349356	7.123048067
218	1	21.3691442	33.24089098	16.62044549
219	1	30.86654162	23.74349356	16.62044549
220	1	30.86654162	33.24089098	7.123048067
221	1	21.3691442	23.74349356	26.11784291
222	1	21.3691442	33.24089098	35.61524034
223	1	30.86654162	23.74349356	35.61524034
224	1	30.86654162	33.24089098	26.11784291
225	1	2.374349356	7.123048067	9.497397423
226	1	2.374349356	16.62044549	18.99479485
227	1	11.87174678	7.123048067	18.99479485
228	1	11.87174678	16.62044549	9.497397423
229	1	2.374349356	7.123048067	28.49219227
230	1	2.374349356	16.62044549	0
231	1	11.87174678	7.123048067	0
232	1	11.87174678	16.62044549	28.49219227
233	1	2.374349356	26.11784291	9.497397423
234	1	2.374349356	35.61524034	18.99479485
235	1	11.87174678	26.11784291	18.99479485
236	1	11.87174678	35.61524034	9.497397423
237	1	2.374349356	26.11784291	28.49219227
238	1	2.374349356	35.61524034	0
239	1	11.87174678	26.11784291	0
240	1	11.87174678	35.61524034	28.49219227
241	1	21.3691442	7.123048067	9.497397423
242	1	21.3691442	16.62044549	18.99479485
243	1	30.86654162	7.123048067	18.99479485
244	1	30.86654162	16.62044549	9.497397423
245	1	21.3691442	7.123048067	28.49219227
246	1	21.3691442	16.62044549	0
247	1	30.86654162	7.123048067	0
248	1	30.86654162	16.62044549	28.49219227
249	1	21.3691442	26.11784291	9.497397423
250	1	21.3691442	35.61524034	18.99479485
251	1	30.86654162	26.11784291	18.99479485
252	1	30.86654162	35.61524034	9.497397423
253	1	21.3691442	26.11784291	28.49219227
254	1	21.3691442	35.61524034	0
255	1	30.86654162	26.11784291	0
256	1	30.86654162	35.61524034	28.49219227
257	1	4.748698711	0	4.748698711
258	1	4.748698711	9.497397423	14.24609613
259	1	14.24609613	0	14.24609613
260	1	14.24609613	9.497397423	4.748698711
261	1	4.748698711	0	23.74349356
262	1	4.748698711	9.497397423	33.24089098
263	1	14.24609613	0	33.24089098
264	1	14.24609613	9.497397423	23.74349356
265	1	4.748698711	18.99479485	4.748698711
266	1	4.748698711	28.49219227	14.24609613
267	1	14.24609613	18.99479485	14.24609613
268	1	14.24609613	28.49219227	4.748698711
269	1	4.748698711	18.99479485	23.74349356
270	1	4.748698711	28.49219227	33.24089098
271	1	14.24609613	18.99479485	33.24089098
272	1	14.24609613	28.49219227	23.74349356
273	1	23.74349356	0	4.748698711
274	1	23.74349356	9.497397423	14.24609613
275	1	33.24089098	0	14.24609613
276	1	33.24089098	9.497397423	4.748698711
277	1	23.74349356	0	23.74349356
278	1	23.74349356	9.497397423	33.24089098
279	1	33.24089098	0	33.24089098
280	1	33.24089098	9.497397423	23.74349356
281	1	23.74349356	18.99479485	4.748698711
282	1	23.74349356	28.49219227	14.24609613
283	1	33.24089098	18.99479485	14.24609613
284	1	33.24089098	28.49219227	4.748698711
285	1	23.74349356	18.99479485	23.74349356
286	1	23.74349356	28.49219227	33.24089098
287	1	33.24089098	18.99479485	33.24089098
288	1	33.24089098	28.49219227	23.74349356
289	1	4.748698711	2.374349356	7.123048067
290	1	4.748698711	11.87174678	16.62044549
291	1	14.24609613	2.374349356	16.62044549
292	1	14.24609613	11.87174678	7.123048067
293	1	4.748698711	2.374349356	26.11784291
294	1	4.748698711	11.87174678	35.61524034
295	1	14.24609613	2.374349356	35.61524034
296	1	14.24609613	11.87174678	26.11784291
297	1	4.748698711	21.3691442	7.123048067
298	1	4.748698711	30.86654162	16.62044549
299	1	14.24609613	21.3691442	16.62044549
300	1	14.24609613	30.86654162	7.123048067
301	1	4.748698711	21.3691442	26.11784291
302	1	4.748698711	30.86654162	35.61524034
303	1	14.24609613	21.3691442	35.61524034
304	1	14.24609613	30.86654162	26.11784291
305	1	23.74349356	2.374349356	7.123048067
306	1	23.74349356	11.87174678	16.62044549
307	1	33.24089098	2.374349356	16.62044549
308	1	33.24089098	11.87174678	7.123048067
309	1	23.74349356	2.374349356	26.11784291
310	1	23.74349356	11.87174678	35.61524034
311	1	33.24089098	2.374349356	35.61524034
312	1	33.24089098	11.87174678	26.11784291
313	1	23.74349356	21.3691442	7.123048067
314	1	23.74349356	30.86654162	16.62044549
315	1	33.24089098	21.3691442	16.62044549
316	1	33.24089098	30.86654162	7.123048067
317	1	23.74349356	21.3691442	26.11784291
318	1	23.74349356	30.86654162	35.61524034
319	1	33.24089098	21.3691442	35.61524034
320	1	33.24089098	30.86654162	26.11784291
321	1	4.748698711	4.748698711	9.497397423
322	1	4.748698711	14.24609613	18.99479485
323	1	14.24609613	4.748698711	18.99479485
324	1	14.24609613	14.24609613	9.497397423
325	1	4.748698711	4.748698711	28.49219227
326	1	4.748698711	14.24609613	0
327	1	14.24609613	4.748698711	0
328	1	14.24609613	14.24609613	28.49219227
329	1	4.748698711	23.74349356	9.497397423
330	1	4.748698711	33.24089098	18.99479485
331	1	14.24609613	23.74349356	18.99479485
332	1	14.24609613	33.24089098	9.497397423
333	1	4.748698711	23.74349356	28.49219227
334	1	4.748698711	33.24089098	0
335	1	14.24609613	23.74349356	0
336	1	14.24609613	33.24089098	28.49219227
337	1	23.74349356	4.748698711	9.497397423
338	1	23.74349356	14.24609613	18.99479485
339	1	33.24089098	4.748698711	18.99479485
340	1	33.24089098	14.24609613	9.497397423
341	1	23.74349356	4.748698711	28.49219227
342	1	23.74349356	14.24609613	0
343	1	33.24089098	4.748698711	0
344	1	33.24089098	14.24609613	28.49219227
345	1	23.74349356	23.74349356	9.497397423
346	1	23.74349356	33.24089098	18.99479485
347	1	33.24089098	23.74349356	18.99479485
348	1	33.24089098	33.24089098	9.497397423
349	1	23.74349356	23.74349356	28.49219227
350	1	23.74349356	33.24089098	0
351	1	33.24089098	23.74349356	0
352	1	33.24089098	33.24089098	28.49219227
353	1	4.748698711	7.123048067	11.87174678
354	1	4.748698711	16.62044549	21.3691442
355	1	14.24609613	7.123048067	21.3691442
356	1	14.24609613	16.62044549	11.87174678
357	1	4.748698711	7.123048067	30.86654162
358	1	4.748698711	16.62044549	2.374349356
359	1	14.24609613	7.123048067	2.374349356
360	1	14.24609613	16.62044549	30.86654162
361	1	4.748698711	26.11784291	11.87174678
362	1	4.748698711	35.61524034	21.3691442
363	1	14.24609613	26.11784291	21.3691442
364	1	14.24609613	35.61524034	11.87174678
365	1	4.748698711	26.11784291	30.86654162
366	1	4.748698711	35.61524034	2.374349356
367	1	14.24609613	26.11784291	2.374349356
368	1	14.24609613	35.61524034	30.86654162
369	1	23.74349356	7.123048067	11.87174678
370	1	23.74349356	16.62044549	21.3691442
371	1	33.24089098	7.123048067	21.3691442
372	1	33.24089098	16.62044549	11.87174678
373	1	23.74349356	7.123048067	30.86654162
374	1	23.74349356	16.62044549	2.374349356
375	1	33.24089098	7.123048067	2.374349356
376	1	33.24089098	16.62044549	30.86654162
377	1	23.74349356	26.11784291	11.87174678
378	1	23.74349356	35.61524034	21.3691442
379	1	33.24089098	26.11784291	21.3691442
380	1	33.24089098	35.61524034	11.87174678
381	1	23.74349356	26.11784291	30.86654162
382	1	23.74349356	35.61524034	2.374349356
383	1	33.24089098	26.11784291	2.374349356
384	1	33.24089098	35.61524034	30.86654162
385	1	7.123048067	0	7.123048067
386	1	7.123048067	9.497397423	16.62044549
387	1	16.62044549	0	16.62044549
388	1	16.62044549	9.497397423	7.123048067
389	1	7.123048067	0	26.11784291
390	1	7.123048067	9.497397423	35.61524034
391	1	16.62044549	0	35.61524034
392	1	16.62044549	9.497397423	26.11784291
393	1	7.123048067	18.99479485	7.123048067
394	1	7.123048067	28.49219227	16.62044549
395	1	16.62044549	18.99479485	16.62044549
396	1	16.62044549	28.49219227	7.123048067
397	1	7.123048067	18.99479485	26.11784291
398	1	7.123048067	28.49219227	35.61524034
399	1	16.62044549	18.99479485	35.61524034
400	1	16.62044549	28.49219227	26.11784291
401	1	26.11784291	0	7.123048067
402	1	26.11784291	9.497397423	16.62044549
403	1	35.61524034	0	16.62044549
404	1	35.61524034	9.497397423	7.123048067
405	1	26.11784291	0	26.11784291
406	1	26.11784291	9.497397423	35.61524034
407	1	35.61524034	0	35.61524034
408	1	35.61524034	9.497397423	26.11784291
409	1	26.11784291	18.99479485	7.123048067
410	1	26.11784291	28.49219227	16.62044549
411	1	35.61524034	18.99479485	16.62044549
412	1	35.61524034	28.49219227	7.123048067
413	1	26.11784291	18.99479485	26.11784291
414	1	26.11784291	28.49219227	35.61524034
415	1	35.61524034	18.99479485	35.61524034
416	1	35.61524034	28.49219227	26.11784291
417	1	7.123048067	2.374349356	9.497397423
418	1	7.123048067	11.87174678	18.99479485
419	1	16.62044549	2.374349356	18.99479485
420	1	16.62044549	11.87174678	9.497397423
421	1	7.123048067	2.374349356	28.49219227
422	1	7.123048067	11.87174678	0
423	1	16.62044549	2.374349356	0
424	1	16.62044549	11.87174678	28.49219227
425	1	7.123048067	21.3691442	9.497397423
426	1	7.123048067	30.86654162	18.99479485
427	1	16.62044549	21.3691442	18.99479485
428	1	16.62044549	30.86654162	9.497397423
429	1	7.123048067	21.3691442	28.49219227
430	1	7.123048067	30.86654162	0
431	1	16.62044549	21.3691442	0
432	1	16.62044549	30.86654162	28.49219227
433	1	26.11784291	2.374349356	9.497397423
434	1	26.11784291	11.87174678	18.99479485
435	1	35.61524034	2.374349356	18.99479485
436	1	35.61524034	11.87174678	9.497397423
437	1	26.11784291	2.374349356	28.49219227
438	1	26.11784291	11.87174678	0
439	1	35.61524034	2.374349356	0
440	1	35.61524034	11.87174678	28.49219227
441	1	26.11784291	21.3691442	9.497397423
442	1	26.11784291	30.86654162	18.99479485
443	1	35.61524034	21.3691442	18.99479485
444	1	35.61524034	30.86654162	9.497397423
445	1	26.11784291	21.3691442	28.49219227
446	1	26.11784291	30.86654162	0
447	1	35.61524034	21.3691442	0
448	1	35.61524034	30.86654162	28.49219227
449	1	7.123048067	4.748698711	11.87174678
450	1	7.123048067	14.24609613	21.3691442
451	1	16.62044549	4.748698711	21.3691442
452	1	16.62044549	14.24609613	11.87174678
453	1	7.123048067	4.748698711	30.86654162
454	1	7.123048067	14.24609613	2.374349356
455	1	16.62044549	4.748698711	2.374349356
456	1	16.62044549	14.24609613	30.86654162
457	1	7.123048067	23.74349356	11.87174678
458	1	7.123048067	33.24089098	21.3691442
459	1	16.62044549	23.74349356	21.3691442
460	1	16.62044549	33.24089098	11.87174678
461	1	7.123048067	23.74349356	30.86654162
462	1	7.123048067	33.24089098	2.374349356
463	1	16.62044549	23.74349356	2.374349356
464	1	16.62044549	33.24089098	30.86654162
465	1	26.11784291	4.748698711	11.87174678
466	1	26.11784291	14.24609613	21.3691442
467	1	35.61524034	4.748698711	21.3691442
468	1	35.61524034	14.24609613	11.87174678
469	1	26.11784291	4.748698711	30.86654162
470	1	26.11784291	14.24609613	2.374349356
471	1	35.61524034	4.748698711	2.374349356
472	1	35.61524034	14.24609613	30.86654162
473	1	26.11784291	23.74349356	11.87174678
474	1	26.11784291	33.24089098	21.3691442
475	1	35.61524034	23.74349356	21.3691442
476	1	35.61524034	33.24089098	11.87174678
477	1	26.11784291	23.74349356	30.86654162
478	1	26.11784291	33.24089098	2.374349356
479	1	35.61524034	23.74349356	2.374349356
480	1	35.61524034	33.24089098	30.86654162
481	1	7.123048067	7.123048067	14.24609613
482	1	7.123048067	16.62044549	23.74349356
483	1	16.62044549	7.123048067	23.74349356
484	1	16.62044549	16.62044549	14.24609613
485	1	7.123048067	7.123048067	33.24089098
486	1	7.123048067	16.62044549	4.748698711
487	1	16.62044549	7.123048067	4.748698711
488	1	16.62044549	16.62044549	33.24089098
489	1	7.123048067	26.11784291	14.24609613
490	1	7.123048067	35.61524034	23.74349356
491	1	16.62044549	26.11784291	23.74349356
492	1	16.62044549	35.61524034	14.24609613
493	1	7.123048067	26.11784291	33.24089098
494	1	7.123048067	35.61524034	4.748698711
495	1	16.62044549	26.11784291	4.748698711
496	1	16.62044549	35.61524034	33.24089098
497	1	26.11784291	7.123048067	14.24609613
498	1	26.11784291	16.62044549	23.74349356
499	1	35.61524034	7.123048067	23.74349356
500	1	35.61524034	16.62044549	14.24609613
501	1	26.11784291	7.123048067	33.24089098
502	1	26.11784291	16.62044549	4.748698711
503	1	35.61524034	7.123048067	4.748698711
504	1	35.61524034	16.62044549	33.24089098
505	1	26.11784291	26.11784291	14.24609613
506	1	26.11784291	35.61524034	23.74349356
507	1	35.61524034	26.11784291	23.74349356
508	1	35.61524034	35.61524034	14.24609613
509	1	26.11784291	26.11784291	33.24089098
510	1	26.11784291	35.61524034	4.748698711
511	1	35.61524034	26.11784291	4.748698711
512	1	35.61524034	35.61524034	33.24089098
513	1	2.374349356	2.374349356	0
514	1	2.374349356	11.87174678	9.497397423
515	1	11.87174678	2.374349356	9.497397423
516	1	11.87174678	11.87174678	0
517	1	2.374349356	2.374349356	18.99479485
518	1	2.374349356	11.87174678	28.49219227
519	1	11.87174678	2.374349356	28.49219227
520	1	11.87174678	11.87174678	18.99479485
521	1	2.374349356	21.3691442	0
522	1	2.374349356	30.86654162	9.497397423
523	1	11.87174678	21.3691442	9.497397423
524	1	11.87174678	30.86654162	0
525	1	2.374349356	21.3691442	18.99479485
526	1	2.374349356	30.86654162	28.49219227
527	1	11.87174678	21.3691442	28.49219227
528	1	11.87174678	30.86654162	18.99479485
529	1	21.3691442	2.374349356	0
530	1	21.3691442	11.87174678	9.497397423
531	1	30.86654162	2.374349356	9.497397423
532	1	30.86654162	11.87174678	0
533	1	21.3691442	2.374349356	18.99479485
534	1	21.3691442	11.87174678	28.49219227
535	1	30.86654162	2.374349356	28.49219227
536	1	30.86654162	11.87174678	18.99479485
537	1	21.3691442	21.3691442	0
538	1	21.3691442	30.86654162	9.497397423
539	1	30.86654162	21.3691442	9.497397423
540	1	30.86654162	30.86654162	0
541	1	21.3691442	21.3691442	18.99479485
542	1	21.3691442	30.86654162	28.49219227
543	1	30.86654162	21.3691442	28.49219227
544	1	30.86654162	30.86654162	18.99479485
545	1	2.374349356	4.748698711	2.374349356
546	1	2.374349356	14.24609613	11.87174678
547	1	11.87174678	4.748698711	11.87174678
548	1	11.87174678	14.24609613	2.374349356
549	1	2.374349356	4.748698711	21.3691442
550	1	2.374349356	14.24609613	30.86654162
551	1	11.87174678	4.748698711	30.86654162
552	1	11.87174678	14.24609613	21.3691442
553	1	2.374349356	23.74349356	2.374349356
554	1	2.374349356	33.24089098	11.87174678
555	1	11.87174678	23.74349356	11.87174678
556	1	11.87174678	33.24089098	2.374349356
557	1	2.374349356	23.74349356	21.3691442
558	1	2.374349356	33.24089098	30.86654162
559	1	11.87174678	23.74349356	30.86654162
560	1	11.87174678	33.24089098	21.3691442
561	1	21.3691442	4.748698711	2.374349356
562	1	21.3691442	14.24609613	11.87174678
563	1	30.86654162	4.748698711	11.87174678
564	1	30.86654162	14.24609613	2.374349356
565	1	21.3691442	4.748698711	21.3691442
566	1	21.3691442	14.24609613	30.86654162
567	1	30.86654162	4.748698711	30.86654162
568	1	30.86654162	14.24609613	21.3691442
569	1	21.3691442	23.74349356	2.374349356
570	1	21.3691442	33.24089098	11.87174678
571	1	30.86654162	23.74349356	11.87174678
572	1	30.86654162	33.24089098	2.374349356
573	1	21.3691442	23.74349356	21.3691442
574	1	21.3691442	33.24089098	30.86654162
575	1	30.86654162	23.74349356	30.86654162
576	1	30.86654162	33.24089098	21.3691442
577	1	2.374349356	7.123048067	4.748698711
578	1	2.374349356	16.62044549	14.24609613
579	1	11.87174678	7.123048067	14.24609613
580	1	11.87174678	16.62044549	4.748698711
581	1	2.374349356	7.123048067	23.74349356
582	1	2.374349356	16.62044549	33.24089098
583	1	11.87174678	7.123048067	33.24089098
584	1	11.87174678	16.62044549	23.74349356
585	1	2.374349356	26.11784291	4.748698711
586	1	2.374349356	35.61524034	14.24609613
587	1	11.87174678	26.11784291	14.24609613
588	1	11.87174678	35.61524034	4.748698711
589	1	2.374349356	26.11784291	23.74349356
590	1	2.374349356	35.61524034	33.24089098
591	1	11.87174678	26.11784291	33.24089098
592	1	11.87174678	35.61524034	23.74349356
593	1	21.3691442	7.123048067	4.748698711
594	1	21.3691442	16.62044549	14.24609613
595	1	30.86654162	7.123048067	14.24609613
596	1	30.86654162	16.62044549	4.748698711
597	1	21.3691442	7.123048067	23.74349356
598	1	21.3691442	16.62044549	33.24089098
599	1	30.86654162	7.123048067	33.24089098
600	1	30.86654162	16.62044549	23.74349356
601	1	21.3691442	26.11784291	4.748698711
602	1	21.3691442	35.61524034	14.24609613
603	1	30.86654162	26.11784291	14.24609613
604	1	30.86654162	35.61524034	4.748698711
605	1	21.3691442	26.11784291	23.74349356
606	1	21.3691442	35.61524034	33.24089098
607	1	30.86654162	26.11784291	33.24089098
608	1	30.86654162	35.61524034	23.74349356
609	1	2.374349356	9.497397423	7.123048067
610	1	2.374349356	18.99479485	16.62044549
611	1	11.87174678	9.497397423	16.62044549
612	1	11.87174678	18.99479485	7.123048067
613	1	2.374349356	9.497397423	26.11784291
614	1	2.374349356	18.99479485	35.61524034
615	1	11.87174678	9.497397423	35.61524034
616	1	11.87174678	18.99479485	26.11784291
617	1	2.374349356	28.49219227	7.123048067
618	1	2.374349356	0	16.62044549
619	1	11.87174678	28.49219227	16.62044549
620	1	11.87174678	0	7.123048067
621	1	2.374349356	28.49219227	26.11784291
622	1	2.374349356	0	35.61524034
623	1	11.87174678	28.49219227	35.61524034
624	1	11.87174678	0	26.11784291
625	1	21.3691442	9.497397423	7.123048067
626	1	21.3691442	18.99479485	16.62044549
627	1	30.86654162	9.497397423	16.62044549
628	1	30.86654162	18.99479485	7.123048067
629	1	21.3691442	9.497397423	26.11784291
630	1	21.3691442	18.99479485	35.61524034
631	1	30.86654162	9.497397423	35.61524034
632	1	30.86654162	18.99479485	26.11784291
633	1	21.3691442	28.49219227	7.123048067
634	1	21.3691442	0	16.62044549
635	1	30.86654162	28.49219227	16.62044549
636	1	30.86654162	0	7.123048067
637	1	21.3691442	28.49219227	26.11784291
638	1	21.3691442	0	35.61524034
639	1	30.86654162	28.49219227	35.61524034
640	1	30.86654162	0	26.11784291
641	1	4.748698711	2.374349356	2.374349356
642	1	4.748698711	11.87174678	11.87174678
643	1	14.24609613	2.374349356	11.87174678
644	1	14.24609613	11.87174678	2.374349356
645	1	4.748698711	2.374349356	21.3691442
646	1	4.748698711	11.87174678	30.86654162
647	1	14.24609613	2.374349356	30.86654162
648	1	14.24609613	11.87174678	21.3691442
649	1	4.748698711	21.3691442	2.374349356
650	1	4.748698711	30.86654162	11.87174678
651	1	14.24609613	21.3691442	11.87174678
652	1	14.24609613	30.86654162	2.374349356
653	1	4.748698711	21.3691442	21.3691442
654	1	4.748698711	30.86654162	30.86654162
655	1	14.24609613	21.3691442	30.86654162
656	1	14.24609613	30.86654162	21.3691442
657	1	23.74349356	2.374349356	2.374349356
658	1	23.74349356	11.87174678	11.87174678
659	1	33.24089098	2.374349356	11.87174678
660	1	33.24089098	11.87174678	2.374349356
661	1	23.74349356	2.374349356	21.3691442
662	1	23.74349356	11.87174678	30.86654162
663	1	33.24089098	2.374349356	30.86654162
664	1	33.24089098	11.87174678	21.3691442
665	1	23.74349356	21.3691442	2.374349356
666	1	23.74349356	30.86654162	11.87174678
667	1	33.24089098	21.3691442	11.87174678
668	1	33.24089098	30.86654162	2.374349356
669	1	23.74349356	21.3691442	21.3691442
670	1	23.74349356	30.86654162	30.86654162
671	1	33.24089098	21.3691442	30.86654162
672	1	33.24089098	30.86654162	21.3691442
673	1	4.748698711	4.748698711	4.748698711
674	1	4.748698711	14.24609613	14.24609613
675	1	14.24609613	4.748698711	14.24609613
676	1	14.24609613	14.24609613	4.748698711
677	1	4.748698711	4.748698711	23.74349356
678	1	4.748698711	14.24609613	33.24089098
679	1	14.24609613	4.748698711	33.24089098
680	1	14.24609613	14.24609613	23.74349356
681	1	4.748698711	23.74349356	4.748698711
682	1	4.748698711	33.24089098	14.24609613
683	1	14.24609613	23.74349356	14.24609613
684	1	14.24609613	33.24089098	4.748698711
685	1	4.748698711	23.74349356	23.74349356
686	1	4.748698711	33.24089098	33.24089098
687	1	14.24609613	23.74349356	33.24089098
688	1	14.24609613	33.24089098	23.74349356
689	1	23.74349356	4.748698711	4.748698711
690	1	23.74349356	14.24609613	14.24609613
691	1	33.24089098	4.748698711	14.24609613
692	1	33.24089098	14.24609613	4.748698711
693	1	23.74349356	4.748698711	23.74349356
694	1	23.74349356	14.24609613	33.24089098
695	1	33.24089098	4.748698711	33.24089098
696	1	33.24089098	14.24609613	23.74349356
697	1	23.74349356	23.74349356	4.748698711
698	1	23.74349356	33.24089098	14.24609613
699	1	33.24089098	23.74349356	14.24609613
700	1	33.24089098	33.24089098	4.748698711
701	1	23.74349356	23.74349356	23.74349356
702	1	23.74349356	33.24089098	33.24089098
703	1	33.24089098	23.74349356	33.24089098
704	1	33.24089098	33.24089098	23.74349356
705	1	4.748698711	7.123048067	7.123048067
706	1	4.748698711	16.62044549	16.62044549
707	1	14.24609613	7.123048067	16.62044549
708	1	14.24609613	16.62044549	7.123048067
709	1	4.748698711	7.123048067	26.11784291
710	1	4.748698711	16.62044549	35.61524034
711	1	14.24609613	7.123048067	35.61524034
712	1	14.24609613	16.62044549	26.11784291
713	1	4.748698711	26.11784291	7.123048067
714	1	4.748698711	35.61524034	16.62044549
715	1	14.24609613	26.11784291	16.62044549
716	1	14.24609613	35.61524034	7.123048067
717	1	4.748698711	26.11784291	26.11784291
718	1	4.748698711	35.61524034	35.61524034
719	1	14.24609613	26.11784291	35.61524034
720	1	14.24609613	35.61524034	26.11784291
721	1	23.74349356	7.123048067	7.123048067
722	1	23.74349356	16.62044549	16.62044549
723	1	33.24089098	7.123048067	16.62044549
724	1	33.24089098	16.62044549	7.123048067
725	1	23.74349356	7.123048067	26.11784291
726	1	23.74349356	16.62044549	35.61524034
727	1	33.24089098	7.123048067	35.61524034
728	1	33.24089098	16.62044549	26.11784291
729	1	23.74349356	26.11784291	7.123048067
730	1	23.74349356	35.61524034	16.62044549
731	1	33.24089098	26.11784291	16.62044549
732	1	33.24089098	35.61524034	7.123048067
733	1	23.74349356	26.11784291	26.11784291
734	1	23.74349356	35.61524034	35.61524034
735	1	33.24089098	26.11784291	35.61524034
736	1	33.24089098	35.61524034	26.11784291
737	1	4.748698711	9.497397423	9.497397423
738	1	4.748698711	18.99479485	18.99479485