 # File generated with MATLAB code by Hao

4095  atoms
1 atom types

0.000000 28.289083 xlo xhi
0.000000 28.289083 ylo yhi
0.000000 28.289083 zlo zhi

Masses

1 12.011000

Atoms

	1	1	0.000000	0.000000	0.000000
	2	1	0.000000	1.768068	1.768068
	3	1	1.768068	0.000000	1.768068
	4	1	1.768068	1.768068	0.000000
	5	1	0.000000	0.000000	3.536135
	6	1	0.000000	1.768068	5.304203
	7	1	1.768068	0.000000	5.304203
	8	1	1.768068	1.768068	3.536135
	9	1	0.000000	0.000000	7.072271
	10	1	0.000000	1.768068	8.840339
	11	1	1.768068	0.000000	8.840339
	12	1	1.768068	1.768068	7.072271
	13	1	0.000000	0.000000	10.608406
	14	1	0.000000	1.768068	12.376474
	15	1	1.768068	0.000000	12.376474
	16	1	1.768068	1.768068	10.608406
	17	1	0.000000	0.000000	14.144542
	18	1	0.000000	1.768068	15.912609
	19	1	1.768068	0.000000	15.912609
	20	1	1.768068	1.768068	14.144542
	21	1	0.000000	0.000000	17.680677
	22	1	0.000000	1.768068	19.448745
	23	1	1.768068	0.000000	19.448745
	24	1	1.768068	1.768068	17.680677
	25	1	0.000000	0.000000	21.216813
	26	1	0.000000	1.768068	22.984880
	27	1	1.768068	0.000000	22.984880
	28	1	1.768068	1.768068	21.216813
	29	1	0.000000	0.000000	24.752948
	30	1	0.000000	1.768068	26.521016
	31	1	1.768068	0.000000	26.521016
	32	1	1.768068	1.768068	24.752948
	33	1	0.000000	3.536135	0.000000
	34	1	0.000000	5.304203	1.768068
	35	1	1.768068	3.536135	1.768068
	36	1	1.768068	5.304203	0.000000
	37	1	0.000000	3.536135	3.536135
	38	1	0.000000	5.304203	5.304203
	39	1	1.768068	3.536135	5.304203
	40	1	1.768068	5.304203	3.536135
	41	1	0.000000	3.536135	7.072271
	42	1	0.000000	5.304203	8.840339
	43	1	1.768068	3.536135	8.840339
	44	1	1.768068	5.304203	7.072271
	45	1	0.000000	3.536135	10.608406
	46	1	0.000000	5.304203	12.376474
	47	1	1.768068	3.536135	12.376474
	48	1	1.768068	5.304203	10.608406
	49	1	0.000000	3.536135	14.144542
	50	1	0.000000	5.304203	15.912609
	51	1	1.768068	3.536135	15.912609
	52	1	1.768068	5.304203	14.144542
	53	1	0.000000	3.536135	17.680677
	54	1	0.000000	5.304203	19.448745
	55	1	1.768068	3.536135	19.448745
	56	1	1.768068	5.304203	17.680677
	57	1	0.000000	3.536135	21.216813
	58	1	0.000000	5.304203	22.984880
	59	1	1.768068	3.536135	22.984880
	60	1	1.768068	5.304203	21.216813
	61	1	0.000000	3.536135	24.752948
	62	1	0.000000	5.304203	26.521016
	63	1	1.768068	3.536135	26.521016
	64	1	1.768068	5.304203	24.752948
	65	1	0.000000	7.072271	0.000000
	66	1	0.000000	8.840339	1.768068
	67	1	1.768068	7.072271	1.768068
	68	1	1.768068	8.840339	0.000000
	69	1	0.000000	7.072271	3.536135
	70	1	0.000000	8.840339	5.304203
	71	1	1.768068	7.072271	5.304203
	72	1	1.768068	8.840339	3.536135
	73	1	0.000000	7.072271	7.072271
	74	1	0.000000	8.840339	8.840339
	75	1	1.768068	7.072271	8.840339
	76	1	1.768068	8.840339	7.072271
	77	1	0.000000	7.072271	10.608406
	78	1	0.000000	8.840339	12.376474
	79	1	1.768068	7.072271	12.376474
	80	1	1.768068	8.840339	10.608406
	81	1	0.000000	7.072271	14.144542
	82	1	0.000000	8.840339	15.912609
	83	1	1.768068	7.072271	15.912609
	84	1	1.768068	8.840339	14.144542
	85	1	0.000000	7.072271	17.680677
	86	1	0.000000	8.840339	19.448745
	87	1	1.768068	7.072271	19.448745
	88	1	1.768068	8.840339	17.680677
	89	1	0.000000	7.072271	21.216813
	90	1	0.000000	8.840339	22.984880
	91	1	1.768068	7.072271	22.984880
	92	1	1.768068	8.840339	21.216813
	93	1	0.000000	7.072271	24.752948
	94	1	0.000000	8.840339	26.521016
	95	1	1.768068	7.072271	26.521016
	96	1	1.768068	8.840339	24.752948
	97	1	0.000000	10.608406	0.000000
	98	1	0.000000	12.376474	1.768068
	99	1	1.768068	10.608406	1.768068
	100	1	1.768068	12.376474	0.000000
	101	1	0.000000	10.608406	3.536135
	102	1	0.000000	12.376474	5.304203
	103	1	1.768068	10.608406	5.304203
	104	1	1.768068	12.376474	3.536135
	105	1	0.000000	10.608406	7.072271
	106	1	0.000000	12.376474	8.840339
	107	1	1.768068	10.608406	8.840339
	108	1	1.768068	12.376474	7.072271
	109	1	0.000000	10.608406	10.608406
	110	1	0.000000	12.376474	12.376474
	111	1	1.768068	10.608406	12.376474
	112	1	1.768068	12.376474	10.608406
	113	1	0.000000	10.608406	14.144542
	114	1	0.000000	12.376474	15.912609
	115	1	1.768068	10.608406	15.912609
	116	1	1.768068	12.376474	14.144542
	117	1	0.000000	10.608406	17.680677
	118	1	0.000000	12.376474	19.448745
	119	1	1.768068	10.608406	19.448745
	120	1	1.768068	12.376474	17.680677
	121	1	0.000000	10.608406	21.216813
	122	1	0.000000	12.376474	22.984880
	123	1	1.768068	10.608406	22.984880
	124	1	1.768068	12.376474	21.216813
	125	1	0.000000	10.608406	24.752948
	126	1	0.000000	12.376474	26.521016
	127	1	1.768068	10.608406	26.521016
	128	1	1.768068	12.376474	24.752948
	129	1	0.000000	14.144542	0.000000
	130	1	0.000000	15.912609	1.768068
	131	1	1.768068	14.144542	1.768068
	132	1	1.768068	15.912609	0.000000
	133	1	0.000000	14.144542	3.536135
	134	1	0.000000	15.912609	5.304203
	135	1	1.768068	14.144542	5.304203
	136	1	1.768068	15.912609	3.536135
	137	1	0.000000	14.144542	7.072271
	138	1	0.000000	15.912609	8.840339
	139	1	1.768068	14.144542	8.840339
	140	1	1.768068	15.912609	7.072271
	141	1	0.000000	14.144542	10.608406
	142	1	0.000000	15.912609	12.376474
	143	1	1.768068	14.144542	12.376474
	144	1	1.768068	15.912609	10.608406
	145	1	0.000000	14.144542	14.144542
	146	1	0.000000	15.912609	15.912609
	147	1	1.768068	14.144542	15.912609
	148	1	1.768068	15.912609	14.144542
	149	1	0.000000	14.144542	17.680677
	150	1	0.000000	15.912609	19.448745
	151	1	1.768068	14.144542	19.448745
	152	1	1.768068	15.912609	17.680677
	153	1	0.000000	14.144542	21.216813
	154	1	0.000000	15.912609	22.984880
	155	1	1.768068	14.144542	22.984880
	156	1	1.768068	15.912609	21.216813
	157	1	0.000000	14.144542	24.752948
	158	1	0.000000	15.912609	26.521016
	159	1	1.768068	14.144542	26.521016
	160	1	1.768068	15.912609	24.752948
	161	1	0.000000	17.680677	0.000000
	162	1	0.000000	19.448745	1.768068
	163	1	1.768068	17.680677	1.768068
	164	1	1.768068	19.448745	0.000000
	165	1	0.000000	17.680677	3.536135
	166	1	0.000000	19.448745	5.304203
	167	1	1.768068	17.680677	5.304203
	168	1	1.768068	19.448745	3.536135
	169	1	0.000000	17.680677	7.072271
	170	1	0.000000	19.448745	8.840339
	171	1	1.768068	17.680677	8.840339
	172	1	1.768068	19.448745	7.072271
	173	1	0.000000	17.680677	10.608406
	174	1	0.000000	19.448745	12.376474
	175	1	1.768068	17.680677	12.376474
	176	1	1.768068	19.448745	10.608406
	177	1	0.000000	17.680677	14.144542
	178	1	0.000000	19.448745	15.912609
	179	1	1.768068	17.680677	15.912609
	180	1	1.768068	19.448745	14.144542
	181	1	0.000000	17.680677	17.680677
	182	1	0.000000	19.448745	19.448745
	183	1	1.768068	17.680677	19.448745
	184	1	1.768068	19.448745	17.680677
	185	1	0.000000	17.680677	21.216813
	186	1	0.000000	19.448745	22.984880
	187	1	1.768068	17.680677	22.984880
	188	1	1.768068	19.448745	21.216813
	189	1	0.000000	17.680677	24.752948
	190	1	0.000000	19.448745	26.521016
	191	1	1.768068	17.680677	26.521016
	192	1	1.768068	19.448745	24.752948
	193	1	0.000000	21.216813	0.000000
	194	1	0.000000	22.984880	1.768068
	195	1	1.768068	21.216813	1.768068
	196	1	1.768068	22.984880	0.000000
	197	1	0.000000	21.216813	3.536135
	198	1	0.000000	22.984880	5.304203
	199	1	1.768068	21.216813	5.304203
	200	1	1.768068	22.984880	3.536135
	201	1	0.000000	21.216813	7.072271
	202	1	0.000000	22.984880	8.840339
	203	1	1.768068	21.216813	8.840339
	204	1	1.768068	22.984880	7.072271
	205	1	0.000000	21.216813	10.608406
	206	1	0.000000	22.984880	12.376474
	207	1	1.768068	21.216813	12.376474
	208	1	1.768068	22.984880	10.608406
	209	1	0.000000	21.216813	14.144542
	210	1	0.000000	22.984880	15.912609
	211	1	1.768068	21.216813	15.912609
	212	1	1.768068	22.984880	14.144542
	213	1	0.000000	21.216813	17.680677
	214	1	0.000000	22.984880	19.448745
	215	1	1.768068	21.216813	19.448745
	216	1	1.768068	22.984880	17.680677
	217	1	0.000000	21.216813	21.216813
	218	1	0.000000	22.984880	22.984880
	219	1	1.768068	21.216813	22.984880
	220	1	1.768068	22.984880	21.216813
	221	1	0.000000	21.216813	24.752948
	222	1	0.000000	22.984880	26.521016
	223	1	1.768068	21.216813	26.521016
	224	1	1.768068	22.984880	24.752948
	225	1	0.000000	24.752948	0.000000
	226	1	0.000000	26.521016	1.768068
	227	1	1.768068	24.752948	1.768068
	228	1	1.768068	26.521016	0.000000
	229	1	0.000000	24.752948	3.536135
	230	1	0.000000	26.521016	5.304203
	231	1	1.768068	24.752948	5.304203
	232	1	1.768068	26.521016	3.536135
	233	1	0.000000	24.752948	7.072271
	234	1	0.000000	26.521016	8.840339
	235	1	1.768068	24.752948	8.840339
	236	1	1.768068	26.521016	7.072271
	237	1	0.000000	24.752948	10.608406
	238	1	0.000000	26.521016	12.376474
	239	1	1.768068	24.752948	12.376474
	240	1	1.768068	26.521016	10.608406
	241	1	0.000000	24.752948	14.144542
	242	1	0.000000	26.521016	15.912609
	243	1	1.768068	24.752948	15.912609
	244	1	1.768068	26.521016	14.144542
	245	1	0.000000	24.752948	17.680677
	246	1	0.000000	26.521016	19.448745
	247	1	1.768068	24.752948	19.448745
	248	1	1.768068	26.521016	17.680677
	249	1	0.000000	24.752948	21.216813
	250	1	0.000000	26.521016	22.984880
	251	1	1.768068	24.752948	22.984880
	252	1	1.768068	26.521016	21.216813
	253	1	0.000000	24.752948	24.752948
	254	1	0.000000	26.521016	26.521016
	255	1	1.768068	24.752948	26.521016
	256	1	1.768068	26.521016	24.752948
	257	1	3.536135	0.000000	0.000000
	258	1	3.536135	1.768068	1.768068
	259	1	5.304203	0.000000	1.768068
	260	1	5.304203	1.768068	0.000000
	261	1	3.536135	0.000000	3.536135
	262	1	3.536135	1.768068	5.304203
	263	1	5.304203	0.000000	5.304203
	264	1	5.304203	1.768068	3.536135
	265	1	3.536135	0.000000	7.072271
	266	1	3.536135	1.768068	8.840339
	267	1	5.304203	0.000000	8.840339
	268	1	5.304203	1.768068	7.072271
	269	1	3.536135	0.000000	10.608406
	270	1	3.536135	1.768068	12.376474
	271	1	5.304203	0.000000	12.376474
	272	1	5.304203	1.768068	10.608406
	273	1	3.536135	0.000000	14.144542
	274	1	3.536135	1.768068	15.912609
	275	1	5.304203	0.000000	15.912609
	276	1	5.304203	1.768068	14.144542
	277	1	3.536135	0.000000	17.680677
	278	1	3.536135	1.768068	19.448745
	279	1	5.304203	0.000000	19.448745
	280	1	5.304203	1.768068	17.680677
	281	1	3.536135	0.000000	21.216813
	282	1	3.536135	1.768068	22.984880
	283	1	5.304203	0.000000	22.984880
	284	1	5.304203	1.768068	21.216813
	285	1	3.536135	0.000000	24.752948
	286	1	3.536135	1.768068	26.521016
	287	1	5.304203	0.000000	26.521016
	288	1	5.304203	1.768068	24.752948
	289	1	3.536135	3.536135	0.000000
	290	1	3.536135	5.304203	1.768068
	291	1	5.304203	3.536135	1.768068
	292	1	5.304203	5.304203	0.000000
	293	1	3.536135	3.536135	3.536135
	294	1	3.536135	5.304203	5.304203
	295	1	5.304203	3.536135	5.304203
	296	1	5.304203	5.304203	3.536135
	297	1	3.536135	3.536135	7.072271
	298	1	3.536135	5.304203	8.840339
	299	1	5.304203	3.536135	8.840339
	300	1	5.304203	5.304203	7.072271
	301	1	3.536135	3.536135	10.608406
	302	1	3.536135	5.304203	12.376474
	303	1	5.304203	3.536135	12.376474
	304	1	5.304203	5.304203	10.608406
	305	1	3.536135	3.536135	14.144542
	306	1	3.536135	5.304203	15.912609
	307	1	5.304203	3.536135	15.912609
	308	1	5.304203	5.304203	14.144542
	309	1	3.536135	3.536135	17.680677
	310	1	3.536135	5.304203	19.448745
	311	1	5.304203	3.536135	19.448745
	312	1	5.304203	5.304203	17.680677
	313	1	3.536135	3.536135	21.216813
	314	1	3.536135	5.304203	22.984880
	315	1	5.304203	3.536135	22.984880
	316	1	5.304203	5.304203	21.216813
	317	1	3.536135	3.536135	24.752948
	318	1	3.536135	5.304203	26.521016
	319	1	5.304203	3.536135	26.521016
	320	1	5.304203	5.304203	24.752948
	321	1	3.536135	7.072271	0.000000
	322	1	3.536135	8.840339	1.768068
	323	1	5.304203	7.072271	1.768068
	324	1	5.304203	8.840339	0.000000
	325	1	3.536135	7.072271	3.536135
	326	1	3.536135	8.840339	5.304203
	327	1	5.304203	7.072271	5.304203
	328	1	5.304203	8.840339	3.536135
	329	1	3.536135	7.072271	7.072271
	330	1	3.536135	8.840339	8.840339
	331	1	5.304203	7.072271	8.840339
	332	1	5.304203	8.840339	7.072271
	333	1	3.536135	7.072271	10.608406
	334	1	3.536135	8.840339	12.376474
	335	1	5.304203	7.072271	12.376474
	336	1	5.304203	8.840339	10.608406
	337	1	3.536135	7.072271	14.144542
	338	1	3.536135	8.840339	15.912609
	339	1	5.304203	7.072271	15.912609
	340	1	5.304203	8.840339	14.144542
	341	1	3.536135	7.072271	17.680677
	342	1	3.536135	8.840339	19.448745
	343	1	5.304203	7.072271	19.448745
	344	1	5.304203	8.840339	17.680677
	345	1	3.536135	7.072271	21.216813
	346	1	3.536135	8.840339	22.984880
	347	1	5.304203	7.072271	22.984880
	348	1	5.304203	8.840339	21.216813
	349	1	3.536135	7.072271	24.752948
	350	1	3.536135	8.840339	26.521016
	351	1	5.304203	7.072271	26.521016
	352	1	5.304203	8.840339	24.752948
	353	1	3.536135	10.608406	0.000000
	354	1	3.536135	12.376474	1.768068
	355	1	5.304203	10.608406	1.768068
	356	1	5.304203	12.376474	0.000000
	357	1	3.536135	10.608406	3.536135
	358	1	3.536135	12.376474	5.304203
	359	1	5.304203	10.608406	5.304203
	360	1	5.304203	12.376474	3.536135
	361	1	3.536135	10.608406	7.072271
	362	1	3.536135	12.376474	8.840339
	363	1	5.304203	10.608406	8.840339
	364	1	5.304203	12.376474	7.072271
	365	1	3.536135	10.608406	10.608406
	366	1	3.536135	12.376474	12.376474
	367	1	5.304203	10.608406	12.376474
	368	1	5.304203	12.376474	10.608406
	369	1	3.536135	10.608406	14.144542
	370	1	3.536135	12.376474	15.912609
	371	1	5.304203	10.608406	15.912609
	372	1	5.304203	12.376474	14.144542
	373	1	3.536135	10.608406	17.680677
	374	1	3.536135	12.376474	19.448745
	375	1	5.304203	10.608406	19.448745
	376	1	5.304203	12.376474	17.680677
	377	1	3.536135	10.608406	21.216813
	378	1	3.536135	12.376474	22.984880
	379	1	5.304203	10.608406	22.984880
	380	1	5.304203	12.376474	21.216813
	381	1	3.536135	10.608406	24.752948
	382	1	3.536135	12.376474	26.521016
	383	1	5.304203	10.608406	26.521016
	384	1	5.304203	12.376474	24.752948
	385	1	3.536135	14.144542	0.000000
	386	1	3.536135	15.912609	1.768068
	387	1	5.304203	14.144542	1.768068
	388	1	5.304203	15.912609	0.000000
	389	1	3.536135	14.144542	3.536135
	390	1	3.536135	15.912609	5.304203
	391	1	5.304203	14.144542	5.304203
	392	1	5.304203	15.912609	3.536135
	393	1	3.536135	14.144542	7.072271
	394	1	3.536135	15.912609	8.840339
	395	1	5.304203	14.144542	8.840339
	396	1	5.304203	15.912609	7.072271
	397	1	3.536135	14.144542	10.608406
	398	1	3.536135	15.912609	12.376474
	399	1	5.304203	14.144542	12.376474
	400	1	5.304203	15.912609	10.608406
	401	1	3.536135	14.144542	14.144542
	402	1	3.536135	15.912609	15.912609
	403	1	5.304203	14.144542	15.912609
	404	1	5.304203	15.912609	14.144542
	405	1	3.536135	14.144542	17.680677
	406	1	3.536135	15.912609	19.448745
	407	1	5.304203	14.144542	19.448745
	408	1	5.304203	15.912609	17.680677
	409	1	3.536135	14.144542	21.216813
	410	1	3.536135	15.912609	22.984880
	411	1	5.304203	14.144542	22.984880
	412	1	5.304203	15.912609	21.216813
	413	1	3.536135	14.144542	24.752948
	414	1	3.536135	15.912609	26.521016
	415	1	5.304203	14.144542	26.521016
	416	1	5.304203	15.912609	24.752948
	417	1	3.536135	17.680677	0.000000
	418	1	3.536135	19.448745	1.768068
	419	1	5.304203	17.680677	1.768068
	420	1	5.304203	19.448745	0.000000
	421	1	3.536135	17.680677	3.536135
	422	1	3.536135	19.448745	5.304203
	423	1	5.304203	17.680677	5.304203
	424	1	5.304203	19.448745	3.536135
	425	1	3.536135	17.680677	7.072271
	426	1	3.536135	19.448745	8.840339
	427	1	5.304203	17.680677	8.840339
	428	1	5.304203	19.448745	7.072271
	429	1	3.536135	17.680677	10.608406
	430	1	3.536135	19.448745	12.376474
	431	1	5.304203	17.680677	12.376474
	432	1	5.304203	19.448745	10.608406
	433	1	3.536135	17.680677	14.144542
	434	1	3.536135	19.448745	15.912609
	435	1	5.304203	17.680677	15.912609
	436	1	5.304203	19.448745	14.144542
	437	1	3.536135	17.680677	17.680677
	438	1	3.536135	19.448745	19.448745
	439	1	5.304203	17.680677	19.448745
	440	1	5.304203	19.448745	17.680677
	441	1	3.536135	17.680677	21.216813
	442	1	3.536135	19.448745	22.984880
	443	1	5.304203	17.680677	22.984880
	444	1	5.304203	19.448745	21.216813
	445	1	3.536135	17.680677	24.752948
	446	1	3.536135	19.448745	26.521016
	447	1	5.304203	17.680677	26.521016
	448	1	5.304203	19.448745	24.752948
	449	1	3.536135	21.216813	0.000000
	450	1	3.536135	22.984880	1.768068
	451	1	5.304203	21.216813	1.768068
	452	1	5.304203	22.984880	0.000000
	453	1	3.536135	21.216813	3.536135
	454	1	3.536135	22.984880	5.304203
	455	1	5.304203	21.216813	5.304203
	456	1	5.304203	22.984880	3.536135
	457	1	3.536135	21.216813	7.072271
	458	1	3.536135	22.984880	8.840339
	459	1	5.304203	21.216813	8.840339
	460	1	5.304203	22.984880	7.072271
	461	1	3.536135	21.216813	10.608406
	462	1	3.536135	22.984880	12.376474
	463	1	5.304203	21.216813	12.376474
	464	1	5.304203	22.984880	10.608406
	465	1	3.536135	21.216813	14.144542
	466	1	3.536135	22.984880	15.912609
	467	1	5.304203	21.216813	15.912609
	468	1	5.304203	22.984880	14.144542
	469	1	3.536135	21.216813	17.680677
	470	1	3.536135	22.984880	19.448745
	471	1	5.304203	21.216813	19.448745
	472	1	5.304203	22.984880	17.680677
	473	1	3.536135	21.216813	21.216813
	474	1	3.536135	22.984880	22.984880
	475	1	5.304203	21.216813	22.984880
	476	1	5.304203	22.984880	21.216813
	477	1	3.536135	21.216813	24.752948
	478	1	3.536135	22.984880	26.521016
	479	1	5.304203	21.216813	26.521016
	480	1	5.304203	22.984880	24.752948
	481	1	3.536135	24.752948	0.000000
	482	1	3.536135	26.521016	1.768068
	483	1	5.304203	24.752948	1.768068
	484	1	5.304203	26.521016	0.000000
	485	1	3.536135	24.752948	3.536135
	486	1	3.536135	26.521016	5.304203
	487	1	5.304203	24.752948	5.304203
	488	1	5.304203	26.521016	3.536135
	489	1	3.536135	24.752948	7.072271
	490	1	3.536135	26.521016	8.840339
	491	1	5.304203	24.752948	8.840339
	492	1	5.304203	26.521016	7.072271
	493	1	3.536135	24.752948	10.608406
	494	1	3.536135	26.521016	12.376474
	495	1	5.304203	24.752948	12.376474
	496	1	5.304203	26.521016	10.608406
	497	1	3.536135	24.752948	14.144542
	498	1	3.536135	26.521016	15.912609
	499	1	5.304203	24.752948	15.912609
	500	1	5.304203	26.521016	14.144542
	501	1	3.536135	24.752948	17.680677
	502	1	3.536135	26.521016	19.448745
	503	1	5.304203	24.752948	19.448745
	504	1	5.304203	26.521016	17.680677
	505	1	3.536135	24.752948	21.216813
	506	1	3.536135	26.521016	22.984880
	507	1	5.304203	24.752948	22.984880
	508	1	5.304203	26.521016	21.216813
	509	1	3.536135	24.752948	24.752948
	510	1	3.536135	26.521016	26.521016
	511	1	5.304203	24.752948	26.521016
	512	1	5.304203	26.521016	24.752948
	513	1	7.072271	0.000000	0.000000
	514	1	7.072271	1.768068	1.768068
	515	1	8.840339	0.000000	1.768068
	516	1	8.840339	1.768068	0.000000
	517	1	7.072271	0.000000	3.536135
	518	1	7.072271	1.768068	5.304203
	519	1	8.840339	0.000000	5.304203
	520	1	8.840339	1.768068	3.536135
	521	1	7.072271	0.000000	7.072271
	522	1	7.072271	1.768068	8.840339
	523	1	8.840339	0.000000	8.840339
	524	1	8.840339	1.768068	7.072271
	525	1	7.072271	0.000000	10.608406
	526	1	7.072271	1.768068	12.376474
	527	1	8.840339	0.000000	12.376474
	528	1	8.840339	1.768068	10.608406
	529	1	7.072271	0.000000	14.144542
	530	1	7.072271	1.768068	15.912609
	531	1	8.840339	0.000000	15.912609
	532	1	8.840339	1.768068	14.144542
	533	1	7.072271	0.000000	17.680677
	534	1	7.072271	1.768068	19.448745
	535	1	8.840339	0.000000	19.448745
	536	1	8.840339	1.768068	17.680677
	537	1	7.072271	0.000000	21.216813
	538	1	7.072271	1.768068	22.984880
	539	1	8.840339	0.000000	22.984880
	540	1	8.840339	1.768068	21.216813
	541	1	7.072271	0.000000	24.752948
	542	1	7.072271	1.768068	26.521016
	543	1	8.840339	0.000000	26.521016
	544	1	8.840339	1.768068	24.752948
	545	1	7.072271	3.536135	0.000000
	546	1	7.072271	5.304203	1.768068
	547	1	8.840339	3.536135	1.768068
	548	1	8.840339	5.304203	0.000000
	549	1	7.072271	3.536135	3.536135
	550	1	7.072271	5.304203	5.304203
	551	1	8.840339	3.536135	5.304203
	552	1	8.840339	5.304203	3.536135
	553	1	7.072271	3.536135	7.072271
	554	1	7.072271	5.304203	8.840339
	555	1	8.840339	3.536135	8.840339
	556	1	8.840339	5.304203	7.072271
	557	1	7.072271	3.536135	10.608406
	558	1	7.072271	5.304203	12.376474
	559	1	8.840339	3.536135	12.376474
	560	1	8.840339	5.304203	10.608406
	561	1	7.072271	3.536135	14.144542
	562	1	7.072271	5.304203	15.912609
	563	1	8.840339	3.536135	15.912609
	564	1	8.840339	5.304203	14.144542
	565	1	7.072271	3.536135	17.680677
	566	1	7.072271	5.304203	19.448745
	567	1	8.840339	3.536135	19.448745
	568	1	8.840339	5.304203	17.680677
	569	1	7.072271	3.536135	21.216813
	570	1	7.072271	5.304203	22.984880
	571	1	8.840339	3.536135	22.984880
	572	1	8.840339	5.304203	21.216813
	573	1	7.072271	3.536135	24.752948
	574	1	7.072271	5.304203	26.521016
	575	1	8.840339	3.536135	26.521016
	576	1	8.840339	5.304203	24.752948
	577	1	7.072271	7.072271	0.000000
	578	1	7.072271	8.840339	1.768068
	579	1	8.840339	7.072271	1.768068
	580	1	8.840339	8.840339	0.000000
	581	1	7.072271	7.072271	3.536135
	582	1	7.072271	8.840339	5.304203
	583	1	8.840339	7.072271	5.304203
	584	1	8.840339	8.840339	3.536135
	585	1	7.072271	7.072271	7.072271
	586	1	7.072271	8.840339	8.840339
	587	1	8.840339	7.072271	8.840339
	588	1	8.840339	8.840339	7.072271
	589	1	7.072271	7.072271	10.608406
	590	1	7.072271	8.840339	12.376474
	591	1	8.840339	7.072271	12.376474
	592	1	8.840339	8.840339	10.608406
	593	1	7.072271	7.072271	14.144542
	594	1	7.072271	8.840339	15.912609
	595	1	8.840339	7.072271	15.912609
	596	1	8.840339	8.840339	14.144542
	597	1	7.072271	7.072271	17.680677
	598	1	7.072271	8.840339	19.448745
	599	1	8.840339	7.072271	19.448745
	600	1	8.840339	8.840339	17.680677
	601	1	7.072271	7.072271	21.216813
	602	1	7.072271	8.840339	22.984880
	603	1	8.840339	7.072271	22.984880
	604	1	8.840339	8.840339	21.216813
	605	1	7.072271	7.072271	24.752948
	606	1	7.072271	8.840339	26.521016
	607	1	8.840339	7.072271	26.521016
	608	1	8.840339	8.840339	24.752948
	609	1	7.072271	10.608406	0.000000
	610	1	7.072271	12.376474	1.768068
	611	1	8.840339	10.608406	1.768068
	612	1	8.840339	12.376474	0.000000
	613	1	7.072271	10.608406	3.536135
	614	1	7.072271	12.376474	5.304203
	615	1	8.840339	10.608406	5.304203
	616	1	8.840339	12.376474	3.536135
	617	1	7.072271	10.608406	7.072271
	618	1	7.072271	12.376474	8.840339
	619	1	8.840339	10.608406	8.840339
	620	1	8.840339	12.376474	7.072271
	621	1	7.072271	10.608406	10.608406
	622	1	7.072271	12.376474	12.376474
	623	1	8.840339	10.608406	12.376474
	624	1	8.840339	12.376474	10.608406
	625	1	7.072271	10.608406	14.144542
	626	1	7.072271	12.376474	15.912609
	627	1	8.840339	10.608406	15.912609
	628	1	8.840339	12.376474	14.144542
	629	1	7.072271	10.608406	17.680677
	630	1	7.072271	12.376474	19.448745
	631	1	8.840339	10.608406	19.448745
	632	1	8.840339	12.376474	17.680677
	633	1	7.072271	10.608406	21.216813
	634	1	7.072271	12.376474	22.984880
	635	1	8.840339	10.608406	22.984880
	636	1	8.840339	12.376474	21.216813
	637	1	7.072271	10.608406	24.752948
	638	1	7.072271	12.376474	26.521016
	639	1	8.840339	10.608406	26.521016
	640	1	8.840339	12.376474	24.752948
	641	1	7.072271	14.144542	0.000000
	642	1	7.072271	15.912609	1.768068
	643	1	8.840339	14.144542	1.768068
	644	1	8.840339	15.912609	0.000000
	645	1	7.072271	14.144542	3.536135
	646	1	7.072271	15.912609	5.304203
	647	1	8.840339	14.144542	5.304203
	648	1	8.840339	15.912609	3.536135
	649	1	7.072271	14.144542	7.072271
	650	1	7.072271	15.912609	8.840339
	651	1	8.840339	14.144542	8.840339
	652	1	8.840339	15.912609	7.072271
	653	1	7.072271	14.144542	10.608406
	654	1	7.072271	15.912609	12.376474
	655	1	8.840339	14.144542	12.376474
	656	1	8.840339	15.912609	10.608406
	657	1	7.072271	14.144542	14.144542
	658	1	7.072271	15.912609	15.912609
	659	1	8.840339	14.144542	15.912609
	660	1	8.840339	15.912609	14.144542
	661	1	7.072271	14.144542	17.680677
	662	1	7.072271	15.912609	19.448745
	663	1	8.840339	14.144542	19.448745
	664	1	8.840339	15.912609	17.680677
	665	1	7.072271	14.144542	21.216813
	666	1	7.072271	15.912609	22.984880
	667	1	8.840339	14.144542	22.984880
	668	1	8.840339	15.912609	21.216813
	669	1	7.072271	14.144542	24.752948
	670	1	7.072271	15.912609	26.521016
	671	1	8.840339	14.144542	26.521016
	672	1	8.840339	15.912609	24.752948
	673	1	7.072271	17.680677	0.000000
	674	1	7.072271	19.448745	1.768068
	675	1	8.840339	17.680677	1.768068
	676	1	8.840339	19.448745	0.000000
	677	1	7.072271	17.680677	3.536135
	678	1	7.072271	19.448745	5.304203
	679	1	8.840339	17.680677	5.304203
	680	1	8.840339	19.448745	3.536135
	681	1	7.072271	17.680677	7.072271
	682	1	7.072271	19.448745	8.840339
	683	1	8.840339	17.680677	8.840339
	684	1	8.840339	19.448745	7.072271
	685	1	7.072271	17.680677	10.608406
	686	1	7.072271	19.448745	12.376474
	687	1	8.840339	17.680677	12.376474
	688	1	8.840339	19.448745	10.608406
	689	1	7.072271	17.680677	14.144542
	690	1	7.072271	19.448745	15.912609
	691	1	8.840339	17.680677	15.912609
	692	1	8.840339	19.448745	14.144542
	693	1	7.072271	17.680677	17.680677
	694	1	7.072271	19.448745	19.448745
	695	1	8.840339	17.680677	19.448745
	696	1	8.840339	19.448745	17.680677
	697	1	7.072271	17.680677	21.216813
	698	1	7.072271	19.448745	22.984880
	699	1	8.840339	17.680677	22.984880
	700	1	8.840339	19.448745	21.216813
	701	1	7.072271	17.680677	24.752948
	702	1	7.072271	19.448745	26.521016
	703	1	8.840339	17.680677	26.521016
	704	1	8.840339	19.448745	24.752948
	705	1	7.072271	21.216813	0.000000
	706	1	7.072271	22.984880	1.768068
	707	1	8.840339	21.216813	1.768068
	708	1	8.840339	22.984880	0.000000
	709	1	7.072271	21.216813	3.536135
	710	1	7.072271	22.984880	5.304203
	711	1	8.840339	21.216813	5.304203
	712	1	8.840339	22.984880	3.536135
	713	1	7.072271	21.216813	7.072271
	714	1	7.072271	22.984880	8.840339
	715	1	8.840339	21.216813	8.840339
	716	1	8.840339	22.984880	7.072271
	717	1	7.072271	21.216813	10.608406
	718	1	7.072271	22.984880	12.376474
	719	1	8.840339	21.216813	12.376474
	720	1	8.840339	22.984880	10.608406
	721	1	7.072271	21.216813	14.144542
	722	1	7.072271	22.984880	15.912609
	723	1	8.840339	21.216813	15.912609
	724	1	8.840339	22.984880	14.144542
	725	1	7.072271	21.216813	17.680677
	726	1	7.072271	22.984880	19.448745
	727	1	8.840339	21.216813	19.448745
	728	1	8.840339	22.984880	17.680677
	729	1	7.072271	21.216813	21.216813
	730	1	7.072271	22.984880	22.984880
	731	1	8.840339	21.216813	22.984880
	732	1	8.840339	22.984880	21.216813
	733	1	7.072271	21.216813	24.752948
	734	1	7.072271	22.984880	26.521016
	735	1	8.840339	21.216813	26.521016
	736	1	8.840339	22.984880	24.752948
	737	1	7.072271	24.752948	0.000000
	738	1	7.072271	26.521016	1.768068
	739	1	8.840339	24.752948	1.768068
	740	1	8.840339	26.521016	0.000000
	741	1	7.072271	24.752948	3.536135
	742	1	7.072271	26.521016	5.304203
	743	1	8.840339	24.752948	5.304203
	744	1	8.840339	26.521016	3.536135
	745	1	7.072271	24.752948	7.072271
	746	1	7.072271	26.521016	8.840339
	747	1	8.840339	24.752948	8.840339
	748	1	8.840339	26.521016	7.072271
	749	1	7.072271	24.752948	10.608406
	750	1	7.072271	26.521016	12.376474
	751	1	8.840339	24.752948	12.376474
	752	1	8.840339	26.521016	10.608406
	753	1	7.072271	24.752948	14.144542
	754	1	7.072271	26.521016	15.912609
	755	1	8.840339	24.752948	15.912609
	756	1	8.840339	26.521016	14.144542
	757	1	7.072271	24.752948	17.680677
	758	1	7.072271	26.521016	19.448745
	759	1	8.840339	24.752948	19.448745
	760	1	8.840339	26.521016	17.680677
	761	1	7.072271	24.752948	21.216813
	762	1	7.072271	26.521016	22.984880
	763	1	8.840339	24.752948	22.984880
	764	1	8.840339	26.521016	21.216813
	765	1	7.072271	24.752948	24.752948
	766	1	7.072271	26.521016	26.521016
	767	1	8.840339	24.752948	26.521016
	768	1	8.840339	26.521016	24.752948
	769	1	10.608406	0.000000	0.000000
	770	1	10.608406	1.768068	1.768068
	771	1	12.376474	0.000000	1.768068
	772	1	12.376474	1.768068	0.000000
	773	1	10.608406	0.000000	3.536135
	774	1	10.608406	1.768068	5.304203
	775	1	12.376474	0.000000	5.304203
	776	1	12.376474	1.768068	3.536135
	777	1	10.608406	0.000000	7.072271
	778	1	10.608406	1.768068	8.840339
	779	1	12.376474	0.000000	8.840339
	780	1	12.376474	1.768068	7.072271
	781	1	10.608406	0.000000	10.608406
	782	1	10.608406	1.768068	12.376474
	783	1	12.376474	0.000000	12.376474
	784	1	12.376474	1.768068	10.608406
	785	1	10.608406	0.000000	14.144542
	786	1	10.608406	1.768068	15.912609
	787	1	12.376474	0.000000	15.912609
	788	1	12.376474	1.768068	14.144542
	789	1	10.608406	0.000000	17.680677
	790	1	10.608406	1.768068	19.448745
	791	1	12.376474	0.000000	19.448745
	792	1	12.376474	1.768068	17.680677
	793	1	10.608406	0.000000	21.216813
	794	1	10.608406	1.768068	22.984880
	795	1	12.376474	0.000000	22.984880
	796	1	12.376474	1.768068	21.216813
	797	1	10.608406	0.000000	24.752948
	798	1	10.608406	1.768068	26.521016
	799	1	12.376474	0.000000	26.521016
	800	1	12.376474	1.768068	24.752948
	801	1	10.608406	3.536135	0.000000
	802	1	10.608406	5.304203	1.768068
	803	1	12.376474	3.536135	1.768068
	804	1	12.376474	5.304203	0.000000
	805	1	10.608406	3.536135	3.536135
	806	1	10.608406	5.304203	5.304203
	807	1	12.376474	3.536135	5.304203
	808	1	12.376474	5.304203	3.536135
	809	1	10.608406	3.536135	7.072271
	810	1	10.608406	5.304203	8.840339
	811	1	12.376474	3.536135	8.840339
	812	1	12.376474	5.304203	7.072271
	813	1	10.608406	3.536135	10.608406
	814	1	10.608406	5.304203	12.376474
	815	1	12.376474	3.536135	12.376474
	816	1	12.376474	5.304203	10.608406
	817	1	10.608406	3.536135	14.144542
	818	1	10.608406	5.304203	15.912609
	819	1	12.376474	3.536135	15.912609
	820	1	12.376474	5.304203	14.144542
	821	1	10.608406	3.536135	17.680677
	822	1	10.608406	5.304203	19.448745
	823	1	12.376474	3.536135	19.448745
	824	1	12.376474	5.304203	17.680677
	825	1	10.608406	3.536135	21.216813
	826	1	10.608406	5.304203	22.984880
	827	1	12.376474	3.536135	22.984880
	828	1	12.376474	5.304203	21.216813
	829	1	10.608406	3.536135	24.752948
	830	1	10.608406	5.304203	26.521016
	831	1	12.376474	3.536135	26.521016
	832	1	12.376474	5.304203	24.752948
	833	1	10.608406	7.072271	0.000000
	834	1	10.608406	8.840339	1.768068
	835	1	12.376474	7.072271	1.768068
	836	1	12.376474	8.840339	0.000000
	837	1	10.608406	7.072271	3.536135
	838	1	10.608406	8.840339	5.304203
	839	1	12.376474	7.072271	5.304203
	840	1	12.376474	8.840339	3.536135
	841	1	10.608406	7.072271	7.072271
	842	1	10.608406	8.840339	8.840339
	843	1	12.376474	7.072271	8.840339
	844	1	12.376474	8.840339	7.072271
	845	1	10.608406	7.072271	10.608406
	846	1	10.608406	8.840339	12.376474
	847	1	12.376474	7.072271	12.376474
	848	1	12.376474	8.840339	10.608406