
 0	43.7901763916   xlo xhi
 0	43.7901763916   ylo yhi
 0	43.7901763916   zlo zhi

5632 atoms

3 atom types

Masses

 1 138.90547
 2 91.224
 3 15.999

Atoms

1	1	4.105329037	4.105329037	1.368443012
2	1	4.105329037	15.05287314	12.31598711
3	1	15.05287314	4.105329037	12.31598711
4	1	15.05287314	15.05287314	1.368443012
5	1	4.105329037	4.105329037	23.26353121
6	1	4.105329037	15.05287314	34.21107531
7	1	15.05287314	4.105329037	34.21107531
8	1	15.05287314	15.05287314	23.26353121
9	1	4.105329037	26.00041723	1.368443012
10	1	4.105329037	36.94796133	12.31598711
11	1	15.05287314	26.00041723	12.31598711
12	1	15.05287314	36.94796133	1.368443012
13	1	4.105329037	26.00041723	23.26353121
14	1	4.105329037	36.94796133	34.21107531
15	1	15.05287314	26.00041723	34.21107531
16	1	15.05287314	36.94796133	23.26353121
17	1	26.00041723	4.105329037	1.368443012
18	1	26.00041723	15.05287314	12.31598711
19	1	36.94796133	4.105329037	12.31598711
20	1	36.94796133	15.05287314	1.368443012
21	1	26.00041723	4.105329037	23.26353121
22	1	26.00041723	15.05287314	34.21107531
23	1	36.94796133	4.105329037	34.21107531
24	1	36.94796133	15.05287314	23.26353121
25	1	26.00041723	26.00041723	1.368443012
26	1	26.00041723	36.94796133	12.31598711
27	1	36.94796133	26.00041723	12.31598711
28	1	36.94796133	36.94796133	1.368443012
29	1	26.00041723	26.00041723	23.26353121
30	1	26.00041723	36.94796133	34.21107531
31	1	36.94796133	26.00041723	34.21107531
32	1	36.94796133	36.94796133	23.26353121
33	1	4.105329037	9.579101086	6.842215061
34	1	4.105329037	20.52664518	17.78975916
35	1	15.05287314	9.579101086	17.78975916
36	1	15.05287314	20.52664518	6.842215061
37	1	4.105329037	9.579101086	28.73730326
38	1	4.105329037	20.52664518	39.68484736
39	1	15.05287314	9.579101086	39.68484736
40	1	15.05287314	20.52664518	28.73730326
41	1	4.105329037	31.47418928	6.842215061
42	1	4.105329037	42.42173338	17.78975916
43	1	15.05287314	31.47418928	17.78975916
44	1	15.05287314	42.42173338	6.842215061
45	1	4.105329037	31.47418928	28.73730326
46	1	4.105329037	42.42173338	39.68484736
47	1	15.05287314	31.47418928	39.68484736
48	1	15.05287314	42.42173338	28.73730326
49	1	26.00041723	9.579101086	6.842215061
50	1	26.00041723	20.52664518	17.78975916
51	1	36.94796133	9.579101086	17.78975916
52	1	36.94796133	20.52664518	6.842215061
53	1	26.00041723	9.579101086	28.73730326
54	1	26.00041723	20.52664518	39.68484736
55	1	36.94796133	9.579101086	39.68484736
56	1	36.94796133	20.52664518	28.73730326
57	1	26.00041723	31.47418928	6.842215061
58	1	26.00041723	42.42173338	17.78975916
59	1	36.94796133	31.47418928	17.78975916
60	1	36.94796133	42.42173338	6.842215061
61	1	26.00041723	31.47418928	28.73730326
62	1	26.00041723	42.42173338	39.68484736
63	1	36.94796133	31.47418928	39.68484736
64	1	36.94796133	42.42173338	28.73730326
65	1	9.579101086	4.105329037	6.842215061
66	1	9.579101086	15.05287314	17.78975916
67	1	20.52664518	4.105329037	17.78975916
68	1	20.52664518	15.05287314	6.842215061
69	1	9.579101086	4.105329037	28.73730326
70	1	9.579101086	15.05287314	39.68484736
71	1	20.52664518	4.105329037	39.68484736
72	1	20.52664518	15.05287314	28.73730326
73	1	9.579101086	26.00041723	6.842215061
74	1	9.579101086	36.94796133	17.78975916
75	1	20.52664518	26.00041723	17.78975916
76	1	20.52664518	36.94796133	6.842215061
77	1	9.579101086	26.00041723	28.73730326
78	1	9.579101086	36.94796133	39.68484736
79	1	20.52664518	26.00041723	39.68484736
80	1	20.52664518	36.94796133	28.73730326
81	1	31.47418928	4.105329037	6.842215061
82	1	31.47418928	15.05287314	17.78975916
83	1	42.42173338	4.105329037	17.78975916
84	1	42.42173338	15.05287314	6.842215061
85	1	31.47418928	4.105329037	28.73730326
86	1	31.47418928	15.05287314	39.68484736
87	1	42.42173338	4.105329037	39.68484736
88	1	42.42173338	15.05287314	28.73730326
89	1	31.47418928	26.00041723	6.842215061
90	1	31.47418928	36.94796133	17.78975916
91	1	42.42173338	26.00041723	17.78975916
92	1	42.42173338	36.94796133	6.842215061
93	1	31.47418928	26.00041723	28.73730326
94	1	31.47418928	36.94796133	39.68484736
95	1	42.42173338	26.00041723	39.68484736
96	1	42.42173338	36.94796133	28.73730326
97	1	9.579101086	9.579101086	12.31598711
98	1	9.579101086	20.52664518	23.26353121
99	1	20.52664518	9.579101086	23.26353121
100	1	20.52664518	20.52664518	12.31598711
101	1	9.579101086	9.579101086	34.21107531
102	1	9.579101086	20.52664518	1.368443012
103	1	20.52664518	9.579101086	1.368443012
104	1	20.52664518	20.52664518	34.21107531
105	1	9.579101086	31.47418928	12.31598711
106	1	9.579101086	42.42173338	23.26353121
107	1	20.52664518	31.47418928	23.26353121
108	1	20.52664518	42.42173338	12.31598711
109	1	9.579101086	31.47418928	34.21107531
110	1	9.579101086	42.42173338	1.368443012
111	1	20.52664518	31.47418928	1.368443012
112	1	20.52664518	42.42173338	34.21107531
113	1	31.47418928	9.579101086	12.31598711
114	1	31.47418928	20.52664518	23.26353121
115	1	42.42173338	9.579101086	23.26353121
116	1	42.42173338	20.52664518	12.31598711
117	1	31.47418928	9.579101086	34.21107531
118	1	31.47418928	20.52664518	1.368443012
119	1	42.42173338	9.579101086	1.368443012
120	1	42.42173338	20.52664518	34.21107531
121	1	31.47418928	31.47418928	12.31598711
122	1	31.47418928	42.42173338	23.26353121
123	1	42.42173338	31.47418928	23.26353121
124	1	42.42173338	42.42173338	12.31598711
125	1	31.47418928	31.47418928	34.21107531
126	1	31.47418928	42.42173338	1.368443012
127	1	42.42173338	31.47418928	1.368443012
128	1	42.42173338	42.42173338	34.21107531
129	1	9.579101086	9.579101086	1.368443012
130	1	9.579101086	20.52664518	12.31598711
131	1	20.52664518	9.579101086	12.31598711
132	1	20.52664518	20.52664518	1.368443012
133	1	9.579101086	9.579101086	23.26353121
134	1	9.579101086	20.52664518	34.21107531
135	1	20.52664518	9.579101086	34.21107531
136	1	20.52664518	20.52664518	23.26353121
137	1	9.579101086	31.47418928	1.368443012
138	1	9.579101086	42.42173338	12.31598711
139	1	20.52664518	31.47418928	12.31598711
140	1	20.52664518	42.42173338	1.368443012
141	1	9.579101086	31.47418928	23.26353121
142	1	9.579101086	42.42173338	34.21107531
143	1	20.52664518	31.47418928	34.21107531
144	1	20.52664518	42.42173338	23.26353121
145	1	31.47418928	9.579101086	1.368443012
146	1	31.47418928	20.52664518	12.31598711
147	1	42.42173338	9.579101086	12.31598711
148	1	42.42173338	20.52664518	1.368443012
149	1	31.47418928	9.579101086	23.26353121
150	1	31.47418928	20.52664518	34.21107531
151	1	42.42173338	9.579101086	34.21107531
152	1	42.42173338	20.52664518	23.26353121
153	1	31.47418928	31.47418928	1.368443012
154	1	31.47418928	42.42173338	12.31598711
155	1	42.42173338	31.47418928	12.31598711
156	1	42.42173338	42.42173338	1.368443012
157	1	31.47418928	31.47418928	23.26353121
158	1	31.47418928	42.42173338	34.21107531
159	1	42.42173338	31.47418928	34.21107531
160	1	42.42173338	42.42173338	23.26353121
161	1	9.579101086	15.05287314	6.842215061
162	1	9.579101086	26.00041723	17.78975916
163	1	20.52664518	15.05287314	17.78975916
164	1	20.52664518	26.00041723	6.842215061
165	1	9.579101086	15.05287314	28.73730326
166	1	9.579101086	26.00041723	39.68484736
167	1	20.52664518	15.05287314	39.68484736
168	1	20.52664518	26.00041723	28.73730326
169	1	9.579101086	36.94796133	6.842215061
170	1	9.579101086	4.105329037	17.78975916
171	1	20.52664518	36.94796133	17.78975916
172	1	20.52664518	4.105329037	6.842215061
173	1	9.579101086	36.94796133	28.73730326
174	1	9.579101086	4.105329037	39.68484736
175	1	20.52664518	36.94796133	39.68484736
176	1	20.52664518	4.105329037	28.73730326
177	1	31.47418928	15.05287314	6.842215061
178	1	31.47418928	26.00041723	17.78975916
179	1	42.42173338	15.05287314	17.78975916
180	1	42.42173338	26.00041723	6.842215061
181	1	31.47418928	15.05287314	28.73730326
182	1	31.47418928	26.00041723	39.68484736
183	1	42.42173338	15.05287314	39.68484736
184	1	42.42173338	26.00041723	28.73730326
185	1	31.47418928	36.94796133	6.842215061
186	1	31.47418928	4.105329037	17.78975916
187	1	42.42173338	36.94796133	17.78975916
188	1	42.42173338	4.105329037	6.842215061
189	1	31.47418928	36.94796133	28.73730326
190	1	31.47418928	4.105329037	39.68484736
191	1	42.42173338	36.94796133	39.68484736
192	1	42.42173338	4.105329037	28.73730326
193	1	15.05287314	9.579101086	6.842215061
194	1	15.05287314	20.52664518	17.78975916
195	1	26.00041723	9.579101086	17.78975916
196	1	26.00041723	20.52664518	6.842215061
197	1	15.05287314	9.579101086	28.73730326
198	1	15.05287314	20.52664518	39.68484736
199	1	26.00041723	9.579101086	39.68484736
200	1	26.00041723	20.52664518	28.73730326
201	1	15.05287314	31.47418928	6.842215061
202	1	15.05287314	42.42173338	17.78975916
203	1	26.00041723	31.47418928	17.78975916
204	1	26.00041723	42.42173338	6.842215061
205	1	15.05287314	31.47418928	28.73730326
206	1	15.05287314	42.42173338	39.68484736
207	1	26.00041723	31.47418928	39.68484736
208	1	26.00041723	42.42173338	28.73730326
209	1	36.94796133	9.579101086	6.842215061
210	1	36.94796133	20.52664518	17.78975916
211	1	4.105329037	9.579101086	17.78975916
212	1	4.105329037	20.52664518	6.842215061
213	1	36.94796133	9.579101086	28.73730326
214	1	36.94796133	20.52664518	39.68484736
215	1	4.105329037	9.579101086	39.68484736
216	1	4.105329037	20.52664518	28.73730326
217	1	36.94796133	31.47418928	6.842215061
218	1	36.94796133	42.42173338	17.78975916
219	1	4.105329037	31.47418928	17.78975916
220	1	4.105329037	42.42173338	6.842215061
221	1	36.94796133	31.47418928	28.73730326
222	1	36.94796133	42.42173338	39.68484736
223	1	4.105329037	31.47418928	39.68484736
224	1	4.105329037	42.42173338	28.73730326
225	1	15.05287314	15.05287314	12.31598711
226	1	15.05287314	26.00041723	23.26353121
227	1	26.00041723	15.05287314	23.26353121
228	1	26.00041723	26.00041723	12.31598711
229	1	15.05287314	15.05287314	34.21107531
230	1	15.05287314	26.00041723	1.368443012
231	1	26.00041723	15.05287314	1.368443012
232	1	26.00041723	26.00041723	34.21107531
233	1	15.05287314	36.94796133	12.31598711
234	1	15.05287314	4.105329037	23.26353121
235	1	26.00041723	36.94796133	23.26353121
236	1	26.00041723	4.105329037	12.31598711
237	1	15.05287314	36.94796133	34.21107531
238	1	15.05287314	4.105329037	1.368443012
239	1	26.00041723	36.94796133	1.368443012
240	1	26.00041723	4.105329037	34.21107531
241	1	36.94796133	15.05287314	12.31598711
242	1	36.94796133	26.00041723	23.26353121
243	1	4.105329037	15.05287314	23.26353121
244	1	4.105329037	26.00041723	12.31598711
245	1	36.94796133	15.05287314	34.21107531
246	1	36.94796133	26.00041723	1.368443012
247	1	4.105329037	15.05287314	1.368443012
248	1	4.105329037	26.00041723	34.21107531
249	1	36.94796133	36.94796133	12.31598711
250	1	36.94796133	4.105329037	23.26353121
251	1	4.105329037	36.94796133	23.26353121
252	1	4.105329037	4.105329037	12.31598711
253	1	36.94796133	36.94796133	34.21107531
254	1	36.94796133	4.105329037	1.368443012
255	1	4.105329037	36.94796133	1.368443012
256	1	4.105329037	4.105329037	34.21107531
257	1	4.105329037	1.368443012	4.105329037
258	1	4.105329037	12.31598711	15.05287314
259	1	15.05287314	1.368443012	15.05287314
260	1	15.05287314	12.31598711	4.105329037
261	1	4.105329037	1.368443012	26.00041723
262	1	4.105329037	12.31598711	36.94796133
263	1	15.05287314	1.368443012	36.94796133
264	1	15.05287314	12.31598711	26.00041723
265	1	4.105329037	23.26353121	4.105329037
266	1	4.105329037	34.21107531	15.05287314
267	1	15.05287314	23.26353121	15.05287314
268	1	15.05287314	34.21107531	4.105329037
269	1	4.105329037	23.26353121	26.00041723
270	1	4.105329037	34.21107531	36.94796133
271	1	15.05287314	23.26353121	36.94796133
272	1	15.05287314	34.21107531	26.00041723
273	1	26.00041723	1.368443012	4.105329037
274	1	26.00041723	12.31598711	15.05287314
275	1	36.94796133	1.368443012	15.05287314
276	1	36.94796133	12.31598711	4.105329037
277	1	26.00041723	1.368443012	26.00041723
278	1	26.00041723	12.31598711	36.94796133
279	1	36.94796133	1.368443012	36.94796133
280	1	36.94796133	12.31598711	26.00041723
281	1	26.00041723	23.26353121	4.105329037
282	1	26.00041723	34.21107531	15.05287314
283	1	36.94796133	23.26353121	15.05287314
284	1	36.94796133	34.21107531	4.105329037
285	1	26.00041723	23.26353121	26.00041723
286	1	26.00041723	34.21107531	36.94796133
287	1	36.94796133	23.26353121	36.94796133
288	1	36.94796133	34.21107531	26.00041723
289	1	4.105329037	6.842215061	9.579101086
290	1	4.105329037	17.78975916	20.52664518
291	1	15.05287314	6.842215061	20.52664518
292	1	15.05287314	17.78975916	9.579101086
293	1	4.105329037	6.842215061	31.47418928
294	1	4.105329037	17.78975916	42.42173338
295	1	15.05287314	6.842215061	42.42173338
296	1	15.05287314	17.78975916	31.47418928
297	1	4.105329037	28.73730326	9.579101086
298	1	4.105329037	39.68484736	20.52664518
299	1	15.05287314	28.73730326	20.52664518
300	1	15.05287314	39.68484736	9.579101086
301	1	4.105329037	28.73730326	31.47418928
302	1	4.105329037	39.68484736	42.42173338
303	1	15.05287314	28.73730326	42.42173338
304	1	15.05287314	39.68484736	31.47418928
305	1	26.00041723	6.842215061	9.579101086
306	1	26.00041723	17.78975916	20.52664518
307	1	36.94796133	6.842215061	20.52664518
308	1	36.94796133	17.78975916	9.579101086
309	1	26.00041723	6.842215061	31.47418928
310	1	26.00041723	17.78975916	42.42173338
311	1	36.94796133	6.842215061	42.42173338
312	1	36.94796133	17.78975916	31.47418928
313	1	26.00041723	28.73730326	9.579101086
314	1	26.00041723	39.68484736	20.52664518
315	1	36.94796133	28.73730326	20.52664518
316	1	36.94796133	39.68484736	9.579101086
317	1	26.00041723	28.73730326	31.47418928
318	1	26.00041723	39.68484736	42.42173338
319	1	36.94796133	28.73730326	42.42173338
320	1	36.94796133	39.68484736	31.47418928
321	1	9.579101086	1.368443012	9.579101086
322	1	9.579101086	12.31598711	20.52664518
323	1	20.52664518	1.368443012	20.52664518
324	1	20.52664518	12.31598711	9.579101086
325	1	9.579101086	1.368443012	31.47418928
326	1	9.579101086	12.31598711	42.42173338
327	1	20.52664518	1.368443012	42.42173338
328	1	20.52664518	12.31598711	31.47418928
329	1	9.579101086	23.26353121	9.579101086
330	1	9.579101086	34.21107531	20.52664518
331	1	20.52664518	23.26353121	20.52664518
332	1	20.52664518	34.21107531	9.579101086
333	1	9.579101086	23.26353121	31.47418928
334	1	9.579101086	34.21107531	42.42173338
335	1	20.52664518	23.26353121	42.42173338
336	1	20.52664518	34.21107531	31.47418928
337	1	31.47418928	1.368443012	9.579101086
338	1	31.47418928	12.31598711	20.52664518
339	1	42.42173338	1.368443012	20.52664518
340	1	42.42173338	12.31598711	9.579101086
341	1	31.47418928	1.368443012	31.47418928
342	1	31.47418928	12.31598711	42.42173338
343	1	42.42173338	1.368443012	42.42173338
344	1	42.42173338	12.31598711	31.47418928
345	1	31.47418928	23.26353121	9.579101086
346	1	31.47418928	34.21107531	20.52664518
347	1	42.42173338	23.26353121	20.52664518
348	1	42.42173338	34.21107531	9.579101086
349	1	31.47418928	23.26353121	31.47418928
350	1	31.47418928	34.21107531	42.42173338
351	1	42.42173338	23.26353121	42.42173338
352	1	42.42173338	34.21107531	31.47418928
353	1	9.579101086	6.842215061	15.05287314
354	1	9.579101086	17.78975916	26.00041723
355	1	20.52664518	6.842215061	26.00041723
356	1	20.52664518	17.78975916	15.05287314
357	1	9.579101086	6.842215061	36.94796133
358	1	9.579101086	17.78975916	4.105329037
359	1	20.52664518	6.842215061	4.105329037
360	1	20.52664518	17.78975916	36.94796133
361	1	9.579101086	28.73730326	15.05287314
362	1	9.579101086	39.68484736	26.00041723
363	1	20.52664518	28.73730326	26.00041723
364	1	20.52664518	39.68484736	15.05287314
365	1	9.579101086	28.73730326	36.94796133
366	1	9.579101086	39.68484736	4.105329037
367	1	20.52664518	28.73730326	4.105329037
368	1	20.52664518	39.68484736	36.94796133
369	1	31.47418928	6.842215061	15.05287314
370	1	31.47418928	17.78975916	26.00041723
371	1	42.42173338	6.842215061	26.00041723
372	1	42.42173338	17.78975916	15.05287314
373	1	31.47418928	6.842215061	36.94796133
374	1	31.47418928	17.78975916	4.105329037
375	1	42.42173338	6.842215061	4.105329037
376	1	42.42173338	17.78975916	36.94796133
377	1	31.47418928	28.73730326	15.05287314
378	1	31.47418928	39.68484736	26.00041723
379	1	42.42173338	28.73730326	26.00041723
380	1	42.42173338	39.68484736	15.05287314
381	1	31.47418928	28.73730326	36.94796133
382	1	31.47418928	39.68484736	4.105329037
383	1	42.42173338	28.73730326	4.105329037
384	1	42.42173338	39.68484736	36.94796133
385	1	9.579101086	6.842215061	4.105329037
386	1	9.579101086	17.78975916	15.05287314
387	1	20.52664518	6.842215061	15.05287314
388	1	20.52664518	17.78975916	4.105329037
389	1	9.579101086	6.842215061	26.00041723
390	1	9.579101086	17.78975916	36.94796133
391	1	20.52664518	6.842215061	36.94796133
392	1	20.52664518	17.78975916	26.00041723
393	1	9.579101086	28.73730326	4.105329037
394	1	9.579101086	39.68484736	15.05287314
395	1	20.52664518	28.73730326	15.05287314
396	1	20.52664518	39.68484736	4.105329037
397	1	9.579101086	28.73730326	26.00041723
398	1	9.579101086	39.68484736	36.94796133
399	1	20.52664518	28.73730326	36.94796133
400	1	20.52664518	39.68484736	26.00041723
401	1	31.47418928	6.842215061	4.105329037
402	1	31.47418928	17.78975916	15.05287314
403	1	42.42173338	6.842215061	15.05287314
404	1	42.42173338	17.78975916	4.105329037
405	1	31.47418928	6.842215061	26.00041723
406	1	31.47418928	17.78975916	36.94796133
407	1	42.42173338	6.842215061	36.94796133
408	1	42.42173338	17.78975916	26.00041723
409	1	31.47418928	28.73730326	4.105329037
410	1	31.47418928	39.68484736	15.05287314
411	1	42.42173338	28.73730326	15.05287314
412	1	42.42173338	39.68484736	4.105329037
413	1	31.47418928	28.73730326	26.00041723
414	1	31.47418928	39.68484736	36.94796133
415	1	42.42173338	28.73730326	36.94796133
416	1	42.42173338	39.68484736	26.00041723
417	1	9.579101086	12.31598711	9.579101086
418	1	9.579101086	23.26353121	20.52664518
419	1	20.52664518	12.31598711	20.52664518
420	1	20.52664518	23.26353121	9.579101086
421	1	9.579101086	12.31598711	31.47418928
422	1	9.579101086	23.26353121	42.42173338
423	1	20.52664518	12.31598711	42.42173338
424	1	20.52664518	23.26353121	31.47418928
425	1	9.579101086	34.21107531	9.579101086
426	1	9.579101086	1.368443012	20.52664518
427	1	20.52664518	34.21107531	20.52664518
428	1	20.52664518	1.368443012	9.579101086
429	1	9.579101086	34.21107531	31.47418928
430	1	9.579101086	1.368443012	42.42173338
431	1	20.52664518	34.21107531	42.42173338
432	1	20.52664518	1.368443012	31.47418928
433	1	31.47418928	12.31598711	9.579101086
434	1	31.47418928	23.26353121	20.52664518
435	1	42.42173338	12.31598711	20.52664518
436	1	42.42173338	23.26353121	9.579101086
437	1	31.47418928	12.31598711	31.47418928
438	1	31.47418928	23.26353121	42.42173338
439	1	42.42173338	12.31598711	42.42173338
440	1	42.42173338	23.26353121	31.47418928
441	1	31.47418928	34.21107531	9.579101086
442	1	31.47418928	1.368443012	20.52664518
443	1	42.42173338	34.21107531	20.52664518
444	1	42.42173338	1.368443012	9.579101086
445	1	31.47418928	34.21107531	31.47418928
446	1	31.47418928	1.368443012	42.42173338
447	1	42.42173338	34.21107531	42.42173338
448	1	42.42173338	1.368443012	31.47418928
449	1	15.05287314	6.842215061	9.579101086
450	1	15.05287314	17.78975916	20.52664518
451	1	26.00041723	6.842215061	20.52664518
452	1	26.00041723	17.78975916	9.579101086
453	1	15.05287314	6.842215061	31.47418928
454	1	15.05287314	17.78975916	42.42173338
455	1	26.00041723	6.842215061	42.42173338
456	1	26.00041723	17.78975916	31.47418928
457	1	15.05287314	28.73730326	9.579101086
458	1	15.05287314	39.68484736	20.52664518
459	1	26.00041723	28.73730326	20.52664518
460	1	26.00041723	39.68484736	9.579101086
461	1	15.05287314	28.73730326	31.47418928
462	1	15.05287314	39.68484736	42.42173338
463	1	26.00041723	28.73730326	42.42173338
464	1	26.00041723	39.68484736	31.47418928
465	1	36.94796133	6.842215061	9.579101086
466	1	36.94796133	17.78975916	20.52664518
467	1	4.105329037	6.842215061	20.52664518
468	1	4.105329037	17.78975916	9.579101086
469	1	36.94796133	6.842215061	31.47418928
470	1	36.94796133	17.78975916	42.42173338
471	1	4.105329037	6.842215061	42.42173338
472	1	4.105329037	17.78975916	31.47418928
473	1	36.94796133	28.73730326	9.579101086
474	1	36.94796133	39.68484736	20.52664518
475	1	4.105329037	28.73730326	20.52664518
476	1	4.105329037	39.68484736	9.579101086
477	1	36.94796133	28.73730326	31.47418928
478	1	36.94796133	39.68484736	42.42173338
479	1	4.105329037	28.73730326	42.42173338
480	1	4.105329037	39.68484736	31.47418928
481	1	15.05287314	12.31598711	15.05287314
482	1	15.05287314	23.26353121	26.00041723
483	1	26.00041723	12.31598711	26.00041723
484	1	26.00041723	23.26353121	15.05287314
485	1	15.05287314	12.31598711	36.94796133
486	1	15.05287314	23.26353121	4.105329037
487	1	26.00041723	12.31598711	4.105329037
488	1	26.00041723	23.26353121	36.94796133
489	1	15.05287314	34.21107531	15.05287314
490	1	15.05287314	1.368443012	26.00041723
491	1	26.00041723	34.21107531	26.00041723
492	1	26.00041723	1.368443012	15.05287314
493	1	15.05287314	34.21107531	36.94796133
494	1	15.05287314	1.368443012	4.105329037
495	1	26.00041723	34.21107531	4.105329037
496	1	26.00041723	1.368443012	36.94796133
497	1	36.94796133	12.31598711	15.05287314
498	1	36.94796133	23.26353121	26.00041723
499	1	4.105329037	12.31598711	26.00041723
500	1	4.105329037	23.26353121	15.05287314
501	1	36.94796133	12.31598711	36.94796133
502	1	36.94796133	23.26353121	4.105329037
503	1	4.105329037	12.31598711	4.105329037
504	1	4.105329037	23.26353121	36.94796133
505	1	36.94796133	34.21107531	15.05287314
506	1	36.94796133	1.368443012	26.00041723
507	1	4.105329037	34.21107531	26.00041723
508	1	4.105329037	1.368443012	15.05287314
509	1	36.94796133	34.21107531	36.94796133
510	1	36.94796133	1.368443012	4.105329037
511	1	4.105329037	34.21107531	4.105329037
512	1	4.105329037	1.368443012	36.94796133
513	1	1.368443012	4.105329037	4.105329037
514	1	1.368443012	15.05287314	15.05287314
515	1	12.31598711	4.105329037	15.05287314
516	1	12.31598711	15.05287314	4.105329037
517	1	1.368443012	4.105329037	26.00041723
518	1	1.368443012	15.05287314	36.94796133
519	1	12.31598711	4.105329037	36.94796133
520	1	12.31598711	15.05287314	26.00041723
521	1	1.368443012	26.00041723	4.105329037
522	1	1.368443012	36.94796133	15.05287314
523	1	12.31598711	26.00041723	15.05287314
524	1	12.31598711	36.94796133	4.105329037
525	1	1.368443012	26.00041723	26.00041723
526	1	1.368443012	36.94796133	36.94796133
527	1	12.31598711	26.00041723	36.94796133
528	1	12.31598711	36.94796133	26.00041723
529	1	23.26353121	4.105329037	4.105329037
530	1	23.26353121	15.05287314	15.05287314
531	1	34.21107531	4.105329037	15.05287314
532	1	34.21107531	15.05287314	4.105329037
533	1	23.26353121	4.105329037	26.00041723
534	1	23.26353121	15.05287314	36.94796133
535	1	34.21107531	4.105329037	36.94796133
536	1	34.21107531	15.05287314	26.00041723
537	1	23.26353121	26.00041723	4.105329037
538	1	23.26353121	36.94796133	15.05287314
539	1	34.21107531	26.00041723	15.05287314
540	1	34.21107531	36.94796133	4.105329037
541	1	23.26353121	26.00041723	26.00041723
542	1	23.26353121	36.94796133	36.94796133
543	1	34.21107531	26.00041723	36.94796133
544	1	34.21107531	36.94796133	26.00041723
545	1	1.368443012	9.579101086	9.579101086
546	1	1.368443012	20.52664518	20.52664518
547	1	12.31598711	9.579101086	20.52664518
548	1	12.31598711	20.52664518	9.579101086
549	1	1.368443012	9.579101086	31.47418928
550	1	1.368443012	20.52664518	42.42173338
551	1	12.31598711	9.579101086	42.42173338
552	1	12.31598711	20.52664518	31.47418928
553	1	1.368443012	31.47418928	9.579101086
554	1	1.368443012	42.42173338	20.52664518
555	1	12.31598711	31.47418928	20.52664518
556	1	12.31598711	42.42173338	9.579101086
557	1	1.368443012	31.47418928	31.47418928
558	1	1.368443012	42.42173338	42.42173338
559	1	12.31598711	31.47418928	42.42173338
560	1	12.31598711	42.42173338	31.47418928
561	1	23.26353121	9.579101086	9.579101086
562	1	23.26353121	20.52664518	20.52664518
563	1	34.21107531	9.579101086	20.52664518
564	1	34.21107531	20.52664518	9.579101086
565	1	23.26353121	9.579101086	31.47418928
566	1	23.26353121	20.52664518	42.42173338
567	1	34.21107531	9.579101086	42.42173338
568	1	34.21107531	20.52664518	31.47418928
569	1	23.26353121	31.47418928	9.579101086
570	1	23.26353121	42.42173338	20.52664518
571	1	34.21107531	31.47418928	20.52664518
572	1	34.21107531	42.42173338	9.579101086
573	1	23.26353121	31.47418928	31.47418928
574	1	23.26353121	42.42173338	42.42173338
575	1	34.21107531	31.47418928	42.42173338
576	1	34.21107531	42.42173338	31.47418928
577	1	6.842215061	4.105329037	9.579101086
578	1	6.842215061	15.05287314	20.52664518
579	1	17.78975916	4.105329037	20.52664518
580	1	17.78975916	15.05287314	9.579101086
581	1	6.842215061	4.105329037	31.47418928
582	1	6.842215061	15.05287314	42.42173338
583	1	17.78975916	4.105329037	42.42173338
584	1	17.78975916	15.05287314	31.47418928
585	1	6.842215061	26.00041723	9.579101086
586	1	6.842215061	36.94796133	20.52664518
587	1	17.78975916	26.00041723	20.52664518
588	1	17.78975916	36.94796133	9.579101086
589	1	6.842215061	26.00041723	31.47418928
590	1	6.842215061	36.94796133	42.42173338
591	1	17.78975916	26.00041723	42.42173338
592	1	17.78975916	36.94796133	31.47418928
593	1	28.73730326	4.105329037	9.579101086
594	1	28.73730326	15.05287314	20.52664518
595	1	39.68484736	4.105329037	20.52664518
596	1	39.68484736	15.05287314	9.579101086
597	1	28.73730326	4.105329037	31.47418928
598	1	28.73730326	15.05287314	42.42173338
599	1	39.68484736	4.105329037	42.42173338
600	1	39.68484736	15.05287314	31.47418928
601	1	28.73730326	26.00041723	9.579101086
602	1	28.73730326	36.94796133	20.52664518
603	1	39.68484736	26.00041723	20.52664518
604	1	39.68484736	36.94796133	9.579101086
605	1	28.73730326	26.00041723	31.47418928
606	1	28.73730326	36.94796133	42.42173338
607	1	39.68484736	26.00041723	42.42173338
608	1	39.68484736	36.94796133	31.47418928
609	1	6.842215061	9.579101086	15.05287314
610	1	6.842215061	20.52664518	26.00041723
611	1	17.78975916	9.579101086	26.00041723
612	1	17.78975916	20.52664518	15.05287314
613	1	6.842215061	9.579101086	36.94796133
614	1	6.842215061	20.52664518	4.105329037
615	1	17.78975916	9.579101086	4.105329037
616	1	17.78975916	20.52664518	36.94796133
617	1	6.842215061	31.47418928	15.05287314
618	1	6.842215061	42.42173338	26.00041723
619	1	17.78975916	31.47418928	26.00041723
620	1	17.78975916	42.42173338	15.05287314
621	1	6.842215061	31.47418928	36.94796133
622	1	6.842215061	42.42173338	4.105329037
623	1	17.78975916	31.47418928	4.105329037
624	1	17.78975916	42.42173338	36.94796133
625	1	28.73730326	9.579101086	15.05287314
626	1	28.73730326	20.52664518	26.00041723
627	1	39.68484736	9.579101086	26.00041723
628	1	39.68484736	20.52664518	15.05287314
629	1	28.73730326	9.579101086	36.94796133
630	1	28.73730326	20.52664518	4.105329037
631	1	39.68484736	9.579101086	4.105329037
632	1	39.68484736	20.52664518	36.94796133
633	1	28.73730326	31.47418928	15.05287314
634	1	28.73730326	42.42173338	26.00041723
635	1	39.68484736	31.47418928	26.00041723
636	1	39.68484736	42.42173338	15.05287314
637	1	28.73730326	31.47418928	36.94796133
638	1	28.73730326	42.42173338	4.105329037
639	1	39.68484736	31.47418928	4.105329037
640	1	39.68484736	42.42173338	36.94796133
641	1	6.842215061	9.579101086	4.105329037
642	1	6.842215061	20.52664518	15.05287314
643	1	17.78975916	9.579101086	15.05287314
644	1	17.78975916	20.52664518	4.105329037
645	1	6.842215061	9.579101086	26.00041723
646	1	6.842215061	20.52664518	36.94796133
647	1	17.78975916	9.579101086	36.94796133
648	1	17.78975916	20.52664518	26.00041723
649	1	6.842215061	31.47418928	4.105329037
650	1	6.842215061	42.42173338	15.05287314
651	1	17.78975916	31.47418928	15.05287314
652	1	17.78975916	42.42173338	4.105329037
653	1	6.842215061	31.47418928	26.00041723
654	1	6.842215061	42.42173338	36.94796133
655	1	17.78975916	31.47418928	36.94796133
656	1	17.78975916	42.42173338	26.00041723
657	1	28.73730326	9.579101086	4.105329037
658	1	28.73730326	20.52664518	15.05287314
659	1	39.68484736	9.579101086	15.05287314
660	1	39.68484736	20.52664518	4.105329037
661	1	28.73730326	9.579101086	26.00041723
662	1	28.73730326	20.52664518	36.94796133
663	1	39.68484736	9.579101086	36.94796133
664	1	39.68484736	20.52664518	26.00041723
665	1	28.73730326	31.47418928	4.105329037
666	1	28.73730326	42.42173338	15.05287314
667	1	39.68484736	31.47418928	15.05287314
668	1	39.68484736	42.42173338	4.105329037
669	1	28.73730326	31.47418928	26.00041723
670	1	28.73730326	42.42173338	36.94796133
671	1	39.68484736	31.47418928	36.94796133
672	1	39.68484736	42.42173338	26.00041723
673	1	6.842215061	15.05287314	9.579101086
674	1	6.842215061	26.00041723	20.52664518
675	1	17.78975916	15.05287314	20.52664518
676	1	17.78975916	26.00041723	9.579101086
677	1	6.842215061	15.05287314	31.47418928
678	1	6.842215061	26.00041723	42.42173338
679	1	17.78975916	15.05287314	42.42173338
680	1	17.78975916	26.00041723	31.47418928
681	1	6.842215061	36.94796133	9.579101086
682	1	6.842215061	4.105329037	20.52664518
683	1	17.78975916	36.94796133	20.52664518
684	1	17.78975916	4.105329037	9.579101086
685	1	6.842215061	36.94796133	31.47418928
686	1	6.842215061	4.105329037	42.42173338
687	1	17.78975916	36.94796133	42.42173338
688	1	17.78975916	4.105329037	31.47418928
689	1	28.73730326	15.05287314	9.579101086
690	1	28.73730326	26.00041723	20.52664518
691	1	39.68484736	15.05287314	20.52664518
692	1	39.68484736	26.00041723	9.579101086
693	1	28.73730326	15.05287314	31.47418928
694	1	28.73730326	26.00041723	42.42173338
695	1	39.68484736	15.05287314	42.42173338
696	1	39.68484736	26.00041723	31.47418928
697	1	28.73730326	36.94796133	9.579101086
698	1	28.73730326	4.105329037	20.52664518
699	1	39.68484736	36.94796133	20.52664518
700	1	39.68484736	4.105329037	9.579101086
701	1	28.73730326	36.94796133	31.47418928
702	1	28.73730326	4.105329037	42.42173338
703	1	39.68484736	36.94796133	42.42173338
704	1	39.68484736	4.105329037	31.47418928
705	1	12.31598711	9.579101086	9.579101086
706	1	12.31598711	20.52664518	20.52664518
707	1	23.26353121	9.579101086	20.52664518
708	1	23.26353121	20.52664518	9.579101086
709	1	12.31598711	9.579101086	31.47418928
710	1	12.31598711	20.52664518	42.42173338
711	1	23.26353121	9.579101086	42.42173338
712	1	23.26353121	20.52664518	31.47418928
713	1	12.31598711	31.47418928	9.579101086