# LAMMPS data file written by OVITO Basic 3.7.12
1920 atoms
3 atom types
0.0 12.7057924685 xlo xhi
0.0 10.9982636033 ylo yhi
0.0 155.2195 zlo zhi

Masses

1 69.723  # Ga
2 26.981538  # Al
3 14.0067  # N

Atoms  # atomic

1	1	1.66284102550000	4.55754950200000	2.36520273650000
2	1	1.64088404170000	4.50367883790000	7.58619558760000
3	1	1.58385469690000	4.56922432380000	12.9535823002000
4	1	1.61862623120000	10.1737388743000	2.29905333410000
5	1	1.69766993880000	9.95701132240000	7.65171876950000
6	1	1.68980075280000	10.1847569176000	12.9206815263000
7	1	4.83125933260000	4.54549037910000	2.37433843120000
8	1	4.87567507700000	4.60792939530000	7.72394424390000
9	1	4.63966625010000	4.62585728890000	12.9649864336000
10	1	4.77048329950000	10.0781831379000	2.30429774590001
11	1	4.79585253820000	10.0452675264000	7.56623985340000
12	1	4.82187825690000	10.0980278308000	12.8899159382000
13	1	7.98742768390000	4.55216138780000	2.23596781570000
14	1	8.03162253020000	4.61446457030000	7.56360599320000
15	1	7.93434267060000	4.50667459270000	13.0049372293000
16	1	7.94276781770000	10.1555514045000	2.32544948310000
17	1	8.00740934300000	10.0742155325000	7.65794561680000
18	1	7.96340044190000	9.96348750210000	13.0053356582000
19	1	11.2187768803000	4.66476965600000	2.21781701940000
20	1	11.1617178534000	4.47044161930000	7.70735365140000
21	1	10.9110423704000	4.59089906840000	13.0776940056000
22	1	11.0314560454000	10.1024123000000	2.27069585080000
23	1	11.1629648594000	10.0535799532000	7.67288690170000
24	1	11.1475064983000	10.0973788528000	12.9319638868000
25	1	12.7182518824000	1.79864060940000	2.40495952240000
26	1	12.7717867252000	1.77700558130000	7.60421303360000
27	1	-0.0675971058000000	1.94393254220000	12.9566157588000
28	1	-0.0386012752000000	7.33855482690000	2.37923624970000
29	1	-0.00492705890000000	7.20863898290000	7.68648366330000
30	1	0.0519536276000000	7.33270156900000	13.0131283234000
31	1	3.09275112810000	1.72837414010000	2.36271717470000
32	1	3.15340776020000	1.81424827730000	7.67657187080000
33	1	3.11007762870000	1.82108596400000	12.9344217592000
34	1	3.10401258110000	7.27847766080000	2.24900294210000
35	1	3.18041855310000	7.30504488270000	7.59583352440000
36	1	3.28043143520000	7.34510988570000	12.9546335100000
37	1	6.34434475400000	1.80048424770000	2.31578591090000
38	1	6.29583851470000	1.86684405830000	7.70584922330000
39	1	6.34123098330000	1.86224685760000	12.9089000193000
40	1	6.33419853850000	7.33038512010000	2.18956939380000
41	1	6.35500143790000	7.29563343850000	7.56330119360000
42	1	6.38932662260000	7.17812719700000	13.0064428385000
43	1	9.62794977260000	1.93865290590000	2.42862702900000
44	1	9.52882442010000	1.84923806520000	7.68375873390000
45	1	9.42144314520000	1.81713002650000	12.9307698740000
46	1	9.50114074470000	7.41658258990000	2.36909705540000
47	1	9.55849622340000	7.24654548710000	7.63013774970001
48	1	9.55228067470000	7.37311630050000	13.0020380419000
49	1	1.50043783530000	0.832224645600000	5.05841797690000
50	1	1.61170448280000	0.901558683400000	10.2180782581000
51	1	1.56896993790000	0.957113544700000	15.5579740482000
52	1	1.59333184690000	6.27055240740000	5.00710514570000
53	1	1.67135150790000	6.47594373100000	10.3590596171000
54	1	1.56775411130000	6.59574774410000	15.6301328216000
55	1	4.73640144370000	0.851841551900000	4.94925054500000
56	1	4.72199261760000	0.931262464100000	10.2848351520000
57	1	4.66562501320000	0.892028509900000	15.5003432535000
58	1	4.72735835000000	6.38274774780000	4.91715792490000
59	1	4.80514460940000	6.46075191600000	10.2590530546000
60	1	4.77576957070000	6.40552660320000	15.6767394032000
61	1	7.92248773030000	0.943568697900000	5.08439940310000
62	1	7.92707095530000	0.823797228100000	10.3201072969000
63	1	7.98056762860000	0.893533477600000	15.5921818284000
64	1	7.85408476250000	6.38155265850000	4.87976396320000
65	1	8.00753313520000	6.45085106110000	10.2375149951000
66	1	8.01768342880000	6.53001474960000	15.6320898487000
67	1	11.0913643564000	0.729290240800000	4.95920652010000
68	1	11.1093986937000	0.922539328200000	10.2853749967000
69	1	11.0922297790000	1.07643164380000	15.5955774210000
70	1	11.1305821878000	6.46181963830000	4.97450479750000
71	1	11.1325059095000	6.30720973540000	10.4096963844000
72	1	11.0835547013000	6.42527890810000	15.6752035472000
73	1	0.00174477140000000	3.60706781350000	4.97680327530000
74	1	12.6902210472000	3.70119417490000	10.2222877303000
75	1	-0.0301046203000000	3.79350674640000	15.6127397199000
76	1	0.114613726900000	9.10352993790000	5.04673886850000
77	1	-0.0608021688000000	9.09216681470000	10.2935885447000
78	1	12.6192782418000	9.30100222470000	15.6894762163000
79	1	3.22509841080000	3.56982963000000	5.01375946100000
80	1	3.15759044850000	3.61655569460000	10.2415637115000
81	1	3.13759290020000	3.81921963650000	15.6613933716000
82	1	3.21743833830000	9.06687736630000	4.95642882590001
83	1	3.22823934310000	9.13618452030000	10.2806073298000
84	1	3.14677765440000	9.30659142480000	15.6238691152000
85	1	6.34068573710000	3.62950808500000	4.98358681900000
86	1	6.32964420150000	3.70472583560000	10.3273971796000
87	1	6.28429681990000	3.61495629110000	15.5395558660000
88	1	6.39663326680000	9.20277125620000	4.92606775480000
89	1	6.36144407070000	9.13694316930000	10.2247971300000
90	1	6.29291882920000	9.09523635040000	15.6862725744000
91	1	9.68917391850000	3.71405101310000	4.91197743680000
92	1	9.46828244480000	3.66826442600000	10.3495845588000
93	1	9.42772748360000	3.58436657300000	15.6953910597000
94	1	9.59260634660000	9.07863110450000	5.03279239270000
95	1	9.56133417220000	9.10456297410000	10.3393244660000
96	1	9.52172256790000	9.22259395090000	15.5779136200000
97	3	1.62564264600000	4.42117152190000	4.33567161130000
98	3	1.59326177160000	4.62808670130000	9.53951531390000
99	3	1.55956938080000	4.66930937470000	14.9594146188000
100	3	1.66096496630000	10.0583854638000	4.30048004460000
101	3	1.61253786250000	10.0105645846000	9.61014104100000
102	3	1.55458473750000	10.1345689436000	14.9077272503000
103	3	4.76993934270000	4.49500767920000	4.34995679820000
104	3	4.77173486750000	4.63693834140000	9.65836895990000
105	3	4.72123312780000	4.53635082680000	14.9202172495000
106	3	4.75478009040000	10.0316181291000	4.20759637720001
107	3	4.83195569210000	10.0914749684000	9.56817212000000
108	3	4.78789327080000	10.0691082582000	14.9006123048000
109	3	7.97850635940000	4.49870886670000	4.28995790660001
110	3	7.92928183650000	4.54690413260000	9.57344599870000
111	3	7.89468692650000	4.57380342510000	14.9613237000000
112	3	7.99817757850000	10.0955965052000	4.32498228680000
113	3	8.00520760150000	9.97923220600000	9.65403122080000
114	3	7.86346095170000	10.0522203387000	15.0016008386000
115	3	11.2262562534000	4.65866477390000	4.19830055400000
116	3	11.0686718387000	4.51443900970000	9.65616130940000
117	3	10.9892474933000	4.61140685300000	15.0452606667000
118	3	11.2371393166000	9.93795975970000	4.33647503400000
119	3	11.1498942199000	10.1020945899000	9.65048040040000
120	3	11.1010701928000	10.2221466552000	14.9292805067000
121	3	12.6311991295000	1.72641213390000	4.36978847960000
122	3	12.6900817005000	1.83902535850000	9.59356130090000
123	3	0.0160620888000000	1.96292566070000	14.9553342924000
124	3	12.6846555271000	7.34054106890000	4.29702891090000
125	3	12.7147515704000	7.22353959390000	9.63653227600000
126	3	-0.109790042800000	7.43535536650000	14.9681273119000
127	3	3.08552566630000	1.74444645870000	4.35217270240000
128	3	3.17723265800000	1.77444673730000	9.59803506640001
129	3	3.14164419750000	1.93693642790000	14.9643977693000
130	3	3.14315094360000	7.27140553660000	4.25587575030000
131	3	3.24304629230000	7.33009833230000	9.58957566230000
132	3	3.23056271460000	7.48432118080000	14.9234943882000
133	3	6.27530877480000	1.85837733940000	4.27781106720000
134	3	6.30302132310000	1.85822857700000	9.70794451430000
135	3	6.31525387070000	1.80952232360000	14.9022617667000
136	3	6.29965590110000	7.33726511540000	4.20472843050001
137	3	6.42789232750000	7.35851174330000	9.62068632760001
138	3	6.33312073140000	7.31224268690000	14.9288781386000
139	3	9.57045065040000	1.83039392220000	4.45466298410000
140	3	9.47765038740000	1.80308420760000	9.66702755550000
141	3	9.49016370700000	1.86953089930000	14.8056321253000
142	3	9.46044881770000	7.30553775460000	4.30509897510000
143	3	9.61568541810000	7.28601038180000	9.62267270420000
144	3	9.57010274710000	7.39382895300000	14.9587106886000
145	3	1.51985009240000	0.957866743700000	1.63171252970000
146	3	1.58451756960000	0.804344081300000	7.06379015100000
147	3	1.55243114340000	0.959362958000000	12.2082478903000
148	3	1.53702387820000	6.39102131210000	1.62137632110001
149	3	1.60659474150000	6.27826342190000	7.02566949750000
150	3	1.71466786230000	6.40873924670000	12.3484744806000
151	3	4.75966471910000	0.839095124400000	1.66086210600000
152	3	4.76517607560000	0.909319615000000	7.01733817990001
153	3	4.75646987240000	0.960508550900000	12.2828178084000
154	3	4.66713890870000	6.33898874020000	1.68453727180000
155	3	4.77440086600000	6.41981446980000	6.95464314630000
156	3	4.81065220900000	6.37539704950000	12.3027529552000
157	3	7.98390811540000	0.983213921400000	1.60927880630000
158	3	7.89287380360000	0.944884946100000	7.03660666300000
159	3	7.89552802770000	0.881034584200000	12.3379241391000
160	3	7.96650760110000	6.44224236880000	1.64974245390000
161	3	7.96931881110000	6.40485062980000	6.88320634480001
162	3	8.03413395860000	6.35786473200000	12.3422883094000
163	3	11.1463072188000	0.911172662400000	1.65174504270000
164	3	11.1256090918000	0.848943165400000	7.00944323570000
165	3	11.1001866200000	0.954393648200000	12.3029330393000
166	3	11.0826819618000	6.52137925760000	1.60265501310001
167	3	11.0700110520000	6.30650137450000	6.91568015700000
168	3	11.1590769803000	6.39157933190000	12.4046514895000
169	3	12.7415066987000	3.63547178600000	1.54373843550000
170	3	12.7157976947000	3.60438263720000	6.95380606900000
171	3	-0.0537880371000000	3.76254445260000	12.2814231829000
172	3	0.0188741710000000	9.20212626800000	1.65954099070000
173	3	0.0702718572000000	9.07229825340000	7.04153082040000
174	3	0.0678272035000000	9.19496673070000	12.3330110943000
175	3	3.26949403620000	3.58474509110000	1.63727728070000
176	3	3.27060365010000	3.61638098910000	7.02775113360000
177	3	3.16162574020000	3.64013003410000	12.2022248901000
178	3	3.17004847660000	9.16289704540000	1.65265247670000
179	3	3.24141309370000	9.08695045060000	6.89493159310000
180	3	3.22236948700000	9.17401943020000	12.2481948694000
181	3	6.40695265240000	3.65366035460000	1.65331208680000
182	3	6.38223970900000	3.64588749340000	7.02044480240000
183	3	6.31067253060000	3.76407065980000	12.2984565025000
184	3	6.36348240300000	9.18372279200000	1.58093375570000
185	3	6.39218337400000	9.15605614110000	6.88973135640000
186	3	6.35817982100000	9.06111387400000	12.2252583395000
187	3	9.60164918330000	3.70286575990000	1.57638705540001
188	3	9.56396429580000	3.67130157120000	6.90295997390000
189	3	9.52032439700000	3.64987965220000	12.3379330419000
190	3	9.48326543860000	9.13104337160000	1.62628157830000
191	3	9.53639908520000	9.10837389650000	7.00691980410000
192	3	9.59635671800000	9.17179692710000	12.2607124662000
193	1	1.66284102550000	4.55754950200000	18.4849027365000
194	1	1.64088404170000	4.50367883790000	23.7058955876000
195	1	1.58385469690000	4.56922432380000	29.0732823002000
196	1	1.61862623120000	10.1737388743000	18.4187533341000
197	1	1.69766993880000	9.95701132240000	23.7714187695000
198	1	1.68980075280000	10.1847569176000	29.0403815263000
199	1	4.83125933260000	4.54549037910000	18.4940384312000
200	1	4.87567507700000	4.60792939530000	23.8436442439000
201	1	4.63966625010000	4.62585728890000	29.0846864336000
202	1	4.77048329950000	10.0781831379000	18.4239977459000
203	1	4.79585253820000	10.0452675264000	23.6859398534000
204	1	4.82187825690000	10.0980278308000	29.0096159382000
205	1	7.98742768390000	4.55216138780000	18.3556678157000
206	1	8.03162253020000	4.61446457030000	23.6833059932000
207	1	7.93434267060000	4.50667459270000	29.1246372293000
208	1	7.94276781770000	10.1555514045000	18.4451494831000
209	1	8.00740934300000	10.0742155325000	23.7776456168000
210	1	7.96340044190000	9.96348750210000	29.1250356582000
211	1	11.2187768803000	4.66476965600000	18.3375170194000
212	1	11.1617178534000	4.47044161930000	23.8270536514000
213	1	10.9110423704000	4.59089906840000	29.1973940056000
214	1	11.0314560454000	10.1024123000000	18.3903958508000
215	1	11.1629648594000	10.0535799532000	23.7925869017000
216	1	11.1475064983000	10.0973788528000	29.0516638868000
217	1	12.7182518824000	1.79864060940000	18.5246595224000
218	1	12.7717867252000	1.77700558130000	23.7239130336000
219	1	-0.0675971058000000	1.94393254220000	29.0763157588000
220	1	-0.0386012752000000	7.33855482690000	18.4989362497000
221	1	-0.00492705890000000	7.20863898290000	23.8061836633000
222	1	0.0519536276000000	7.33270156900000	29.1328283234000
223	1	3.09275112810000	1.72837414010000	18.4824171747000
224	1	3.15340776020000	1.81424827730000	23.7962718708000
225	1	3.11007762870000	1.82108596400000	29.0541217592000
226	1	3.10401258110000	7.27847766080000	18.3687029421000
227	1	3.18041855310000	7.30504488270000	23.7155335244000
228	1	3.28043143520000	7.34510988570000	29.0743335100000
229	1	6.34434475400000	1.80048424770000	18.4354859109000
230	1	6.29583851470000	1.86684405830000	23.8255492233000
231	1	6.34123098330000	1.86224685760000	29.0286000193000
232	1	6.33419853850000	7.33038512010000	18.3092693938000
233	1	6.35500143790000	7.29563343850000	23.6830011936000
234	1	6.38932662260000	7.17812719700000	29.1261428385000
235	1	9.62794977260000	1.93865290590000	18.5483270290000
236	1	9.52882442010000	1.84923806520000	23.8034587339000
237	1	9.42144314520000	1.81713002650000	29.0504698740000
238	1	9.50114074470000	7.41658258990000	18.4887970554000
239	1	9.55849622340000	7.24654548710000	23.7498377497000
240	1	9.55228067470000	7.37311630050000	29.1217380419000
241	1	1.50043783530000	0.832224645600000	21.1781179769000
242	1	1.61170448280000	0.901558683400000	26.3377782581000
243	1	1.56896993790000	0.957113544700000	31.6776740482000
244	1	1.59333184690000	6.27055240740000	21.1268051457000
245	1	1.67135150790000	6.47594373100000	26.4787596171000
246	1	1.56775411130000	6.59574774410000	31.7498328216000
247	1	4.73640144370000	0.851841551900000	21.0689505450000
248	1	4.72199261760000	0.931262464100000	26.4045351520000
249	1	4.66562501320000	0.892028509900000	31.6200432535000
250	1	4.72735835000000	6.38274774780000	21.0368579249000
251	1	4.80514460940000	6.46075191600000	26.3787530546000
252	1	4.77576957070000	6.40552660320000	31.7964394032000
253	1	7.92248773030000	0.943568697900000	21.2040994031000
254	1	7.92707095530000	0.823797228100000	26.4398072969000
255	1	7.98056762860000	0.893533477600000	31.7118818284000
256	1	7.85408476250000	6.38155265850000	20.9994639632000
257	1	8.00753313520000	6.45085106110000	26.3572149951000
258	1	8.01768342880000	6.53001474960000	31.7517898487000
259	1	11.0913643564000	0.729290240800000	21.0789065201000
260	1	11.1093986937000	0.922539328200000	26.4050749967000
261	1	11.0922297790000	1.07643164380000	31.7152774210000
262	1	11.1305821878000	6.46181963830000	21.0942047975000
263	1	11.1325059095000	6.30720973540000	26.5293963844000
264	1	11.0835547013000	6.42527890810000	31.7949035472000
265	1	0.00174477140000000	3.60706781350000	21.0965032753000
266	1	12.6902210472000	3.70119417490000	26.3419877303000
267	1	-0.0301046203000000	3.79350674640000	31.7324397199000
268	1	0.114613726900000	9.10352993790000	21.1664388685000
269	1	-0.0608021688000000	9.09216681470000	26.4132885447000
270	1	12.6192782418000	9.30100222470000	31.8091762163000
271	1	3.22509841080000	3.56982963000000	21.1334594610000
272	1	3.15759044850000	3.61655569460000	26.3612637115000
273	1	3.13759290020000	3.81921963650000	31.7810933716000
274	1	3.21743833830000	9.06687736630000	21.0761288259000
275	1	3.22823934310000	9.13618452030000	26.4003073298000
276	1	3.14677765440000	9.30659142480000	31.7435691152000
277	1	6.34068573710000	3.62950808500000	21.1032868190000
278	1	6.32964420150000	3.70472583560000	26.4470971796000
279	1	6.28429681990000	3.61495629110000	31.6592558660000
280	1	6.39663326680000	9.20277125620000	21.0457677548000
281	1	6.36144407070000	9.13694316930000	26.3444971300000
282	1	6.29291882920000	9.09523635040000	31.8059725744000
283	1	9.68917391850000	3.71405101310000	21.0316774368000
284	1	9.46828244480000	3.66826442600000	26.4692845588000
285	1	9.42772748360000	3.58436657300000	31.8150910597000
286	1	9.59260634660000	9.07863110450000	21.1524923927000
287	1	9.56133417220000	9.10456297410000	26.4590244660000
288	1	9.52172256790000	9.22259395090000	31.6976136200000
289	3	1.62564264600000	4.42117152190000	20.4553716113000
290	3	1.59326177160000	4.62808670130000	25.6592153139000
291	3	1.55956938080000	4.66930937470000	31.0791146188000
292	3	1.66096496630000	10.0583854638000	20.4201800446000
293	3	1.61253786250000	10.0105645846000	25.7298410410000
294	3	1.55458473750000	10.1345689436000	31.0274272503000
295	3	4.76993934270000	4.49500767920000	20.4696567982000
296	3	4.77173486750000	4.63693834140000	25.7780689599000
297	3	4.72123312780000	4.53635082680000	31.0399172495000
298	3	4.75478009040000	10.0316181291000	20.3272963772000
299	3	4.83195569210000	10.0914749684000	25.6878721200000
300	3	4.78789327080000	10.0691082582000	31.0203123048000
301	3	7.97850635940000	4.49870886670000	20.4096579066000
302	3	7.92928183650000	4.54690413260000	25.6931459987000
303	3	7.89468692650000	4.57380342510000	31.0810237000000
304	3	7.99817757850000	10.0955965052000	20.4446822868000
305	3	8.00520760150000	9.97923220600000	25.7737312208000
306	3	7.86346095170000	10.0522203387000	31.1213008386000
307	3	11.2262562534000	4.65866477390000	20.3180005540000
308	3	11.0686718387000	4.51443900970000	25.7758613094000
309	3	10.9892474933000	4.61140685300000	31.1649606667000
310	3	11.2371393166000	9.93795975970000	20.4561750340000
311	3	11.1498942199000	10.1020945899000	25.7701804004000
312	3	11.1010701928000	10.2221466552000	31.0489805067000
313	3	12.6311991295000	1.72641213390000	20.4894884796000
314	3	12.6900817005000	1.83902535850000	25.7132613009000
315	3	0.0160620888000000	1.96292566070000	31.0750342924000
316	3	12.6846555271000	7.34054106890000	20.4167289109000
317	3	12.7147515704000	7.22353959390000	25.7562322760000
318	3	-0.109790042800000	7.43535536650000	31.0878273119000
319	3	3.08552566630000	1.74444645870000	20.4718727024000
320	3	3.17723265800000	1.77444673730000	25.7177350664000
321	3	3.14164419750000	1.93693642790000	31.0840977693000
322	3	3.14315094360000	7.27140553660000	20.3755757503000
323	3	3.24304629230000	7.33009833230000	25.7092756623000
324	3	3.23056271460000	7.48432118080000	31.0431943882000
325	3	6.27530877480000	1.85837733940000	20.3975110672000
326	3	6.30302132310000	1.85822857700000	25.8276445143000
327	3	6.31525387070000	1.80952232360000	31.0219617667000
328	3	6.29965590110000	7.33726511540000	20.3244284305000
329	3	6.42789232750000	7.35851174330000	25.7403863276000
330	3	6.33312073140000	7.31224268690000	31.0485781386000
331	3	9.57045065040000	1.83039392220000	20.5743629841000
332	3	9.47765038740000	1.80308420760000	25.7867275555000
333	3	9.49016370700000	1.86953089930000	30.9253321253000
334	3	9.46044881770000	7.30553775460000	20.4247989751000
335	3	9.61568541810000	7.28601038180000	25.7423727042000
336	3	9.57010274710000	7.39382895300000	31.0784106886000
337	3	1.51985009240000	0.957866743700000	17.7514125297000
338	3	1.58451756960000	0.804344081300000	23.1834901510000
339	3	1.55243114340000	0.959362958000000	28.3279478903000
340	3	1.53702387820000	6.39102131210000	17.7410763211000
341	3	1.60659474150000	6.27826342190000	23.1453694975000
342	3	1.71466786230000	6.40873924670000	28.4681744806000
343	3	4.75966471910000	0.839095124400000	17.7805621060000
344	3	4.76517607560000	0.909319615000000	23.1370381799000
345	3	4.75646987240000	0.960508550900000	28.4025178084000
346	3	4.66713890870000	6.33898874020000	17.8042372718000
347	3	4.77440086600000	6.41981446980000	23.0743431463000
348	3	4.81065220900000	6.37539704950000	28.4224529552000
349	3	7.98390811540000	0.983213921400000	17.7289788063000
350	3	7.89287380360000	0.944884946100000	23.1563066630000
351	3	7.89552802770000	0.881034584200000	28.4576241391000
352	3	7.96650760110000	6.44224236880000	17.7694424539000
353	3	7.96931881110000	6.40485062980000	23.0029063448000
354	3	8.03413395860000	6.35786473200000	28.4619883094000
355	3	11.1463072188000	0.911172662400000	17.7714450427000
356	3	11.1256090918000	0.848943165400000	23.1291432357000
357	3	11.1001866200000	0.954393648200000	28.4226330393000
358	3	11.0826819618000	6.52137925760000	17.7223550131000
359	3	11.0700110520000	6.30650137450000	23.0353801570000
360	3	11.1590769803000	6.39157933190000	28.5243514895000
361	3	12.7415066987000	3.63547178600000	17.6634384355000
362	3	12.7157976947000	3.60438263720000	23.0735060690000
363	3	-0.0537880371000000	3.76254445260000	28.4011231829000
364	3	0.0188741710000000	9.20212626800000	17.7792409907000
365	3	0.0702718572000000	9.07229825340000	23.1612308204000
366	3	0.0678272035000000	9.19496673070000	28.4527110943000
367	3	3.26949403620000	3.58474509110000	17.7569772807000
368	3	3.27060365010000	3.61638098910000	23.1474511336000
369	3	3.16162574020000	3.64013003410000	28.3219248901000
370	3	3.17004847660000	9.16289704540000	17.7723524767000
371	3	3.24141309370000	9.08695045060000	23.0146315931000
372	3	3.22236948700000	9.17401943020000	28.3678948694000
373	3	6.40695265240000	3.65366035460000	17.7730120868000
374	3	6.38223970900000	3.64588749340000	23.1401448024000
375	3	6.31067253060000	3.76407065980000	28.4181565025000
376	3	6.36348240300000	9.18372279200000	17.7006337557000
377	3	6.39218337400000	9.15605614110000	23.0094313564000
378	3	6.35817982100000	9.06111387400000	28.3449583395000
379	3	9.60164918330000	3.70286575990000	17.6960870554000
380	3	9.56396429580000	3.67130157120000	23.0226599739000
381	3	9.52032439700000	3.64987965220000	28.4576330419000
382	3	9.48326543860000	9.13104337160000	17.7459815783000
383	3	9.53639908520000	9.10837389650000	23.1266198041000
384	3	9.59635671800000	9.17179692710000	28.3804124662000
385	1	1.66284102550000	4.55754950200000	34.6046027365000
386	1	1.64088404170000	4.50367883790000	39.8255955876000
387	1	1.58385469690000	4.56922432380000	45.1929823002000
388	1	1.61862623120000	10.1737388743000	34.5384533341000
389	1	1.69766993880000	9.95701132240000	39.8911187695000
390	1	1.68980075280000	10.1847569176000	45.1600815263000
391	1	4.83125933260000	4.54549037910000	34.6137384312000
392	1	4.87567507700000	4.60792939530000	39.9633442439000
393	1	4.63966625010000	4.62585728890000	45.2043864336000
394	1	4.77048329950000	10.0781831379000	34.5436977459000
395	1	4.79585253820000	10.0452675264000	39.8056398534000
396	1	4.82187825690000	10.0980278308000	45.1293159382000
397	1	7.98742768390000	4.55216138780000	34.4753678157000
398	1	8.03162253020000	4.61446457030000	39.8030059932000
399	1	7.93434267060000	4.50667459270000	45.2443372293000
400	1	7.94276781770000	10.1555514045000	34.5648494831000
401	1	8.00740934300000	10.0742155325000	39.8973456168000
402	1	7.96340044190000	9.96348750210000	45.2447356582000
403	1	11.2187768803000	4.66476965600000	34.4572170194000
404	1	11.1617178534000	4.47044161930000	39.9467536514000
405	1	10.9110423704000	4.59089906840000	45.3170940056000
406	1	11.0314560454000	10.1024123000000	34.5100958508000
407	1	11.1629648594000	10.0535799532000	39.9122869017000
408	1	11.1475064983000	10.0973788528000	45.1713638868000
409	1	12.7182518824000	1.79864060940000	34.6443595224000
410	1	12.7717867252000	1.77700558130000	39.8436130336000
411	1	-0.0675971058000000	1.94393254220000	45.1960157588000
412	1	-0.0386012752000000	7.33855482690000	34.6186362497000
413	1	-0.00492705890000000	7.20863898290000	39.9258836633000
414	1	0.0519536276000000	7.33270156900000	45.2525283234000
415	1	3.09275112810000	1.72837414010000	34.6021171747000
416	1	3.15340776020000	1.81424827730000	39.9159718708000
417	1	3.11007762870000	1.82108596400000	45.1738217592000
418	1	3.10401258110000	7.27847766080000	34.4884029421000
419	1	3.18041855310000	7.30504488270000	39.8352335244000
420	1	3.28043143520000	7.34510988570000	45.1940335100000
421	1	6.34434475400000	1.80048424770000	34.5551859109000
422	1	6.29583851470000	1.86684405830000	39.9452492233000
423	1	6.34123098330000	1.86224685760000	45.1483000193000
424	1	6.33419853850000	7.33038512010000	34.4289693938000
425	1	6.35500143790000	7.29563343850000	39.8027011936000
426	1	6.38932662260000	7.17812719700000	45.2458428385000
427	1	9.62794977260000	1.93865290590000	34.6680270290000
428	1	9.52882442010000	1.84923806520000	39.9231587339000
429	1	9.42144314520000	1.81713002650000	45.1701698740000
430	1	9.50114074470000	7.41658258990000	34.6084970554000
431	1	9.55849622340000	7.24654548710000	39.8695377497000
432	1	9.55228067470000	7.37311630050000	45.2414380419000
433	1	1.50043783530000	0.832224645600000	37.2978179769000
434	1	1.61170448280000	0.901558683400000	42.4574782581000
435	1	1.56896993790000	0.957113544700000	47.7973740482000
436	1	1.59333184690000	6.27055240740000	37.2465051457000
437	1	1.67135150790000	6.47594373100000	42.5984596171000
438	1	1.56775411130000	6.59574774410000	47.8695328216000
439	1	4.73640144370000	0.851841551900000	37.1886505450000
440	1	4.72199261760000	0.931262464100000	42.5242351520000
441	1	4.66562501320000	0.892028509900000	47.7397432535000
442	1	4.72735835000000	6.38274774780000	37.1565579249000
443	1	4.80514460940000	6.46075191600000	42.4984530546000
444	1	4.77576957070000	6.40552660320000	47.9161394032000
445	1	7.92248773030000	0.943568697900000	37.3237994031000
446	1	7.92707095530000	0.823797228100000	42.5595072969000
447	1	7.98056762860000	0.893533477600000	47.8315818284000
448	1	7.85408476250000	6.38155265850000	37.1191639632000
449	1	8.00753313520000	6.45085106110000	42.4769149951000
450	1	8.01768342880000	6.53001474960000	47.8714898487000
451	1	11.0913643564000	0.729290240800000	37.1986065201000
452	1	11.1093986937000	0.922539328200000	42.5247749967000
453	1	11.0922297790000	1.07643164380000	47.8349774210000
454	1	11.1305821878000	6.46181963830000	37.2139047975000
455	1	11.1325059095000	6.30720973540000	42.6490963844000
456	1	11.0835547013000	6.42527890810000	47.9146035472000
457	1	0.00174477140000000	3.60706781350000	37.2162032753000
458	1	12.6902210472000	3.70119417490000	42.4616877303000
459	1	-0.0301046203000000	3.79350674640000	47.8521397199000
460	1	0.114613726900000	9.10352993790000	37.2861388685000
461	1	-0.0608021688000000	9.09216681470000	42.5329885447000
462	1	12.6192782418000	9.30100222470000	47.9288762163000
463	1	3.22509841080000	3.56982963000000	37.2531594610000
464	1	3.15759044850000	3.61655569460000	42.4809637115000
465	1	3.13759290020000	3.81921963650000	47.9007933716000
466	1	3.21743833830000	9.06687736630000	37.1958288259000
467	1	3.22823934310000	9.13618452030000	42.5200073298000
468	1	3.14677765440000	9.30659142480000	47.8632691152000
469	1	6.34068573710000	3.62950808500000	37.2229868190000
470	1	6.32964420150000	3.70472583560000	42.5667971796000
471	1	6.28429681990000	3.61495629110000	47.7789558660000
472	1	6.39663326680000	9.20277125620000	37.1654677548000
473	1	6.36144407070000	9.13694316930000	42.4641971300000
474	1	6.29291882920000	9.09523635040000	47.9256725744000
475	1	9.68917391850000	3.71405101310000	37.1513774368000
476	1	9.46828244480000	3.66826442600000	42.5889845588000
477	1	9.42772748360000	3.58436657300000	47.9347910597000
478	1	9.59260634660000	9.07863110450000	37.2721923927000
479	1	9.56133417220000	9.10456297410000	42.5787244660000
480	1	9.52172256790000	9.22259395090000	47.8173136200000
481	3	1.62564264600000	4.42117152190000	36.5750716113000
482	3	1.59326177160000	4.62808670130000	41.7789153139000
483	3	1.55956938080000	4.66930937470000	47.1988146188000
484	3	1.66096496630000	10.0583854638000	36.5398800446000
485	3	1.61253786250000	10.0105645846000	41.8495410410000
486	3	1.55458473750000	10.1345689436000	47.1471272503000
487	3	4.76993934270000	4.49500767920000	36.5893567982000
488	3	4.77173486750000	4.63693834140000	41.8977689599000
489	3	4.72123312780000	4.53635082680000	47.1596172495000
490	3	4.75478009040000	10.0316181291000	36.4469963772000
491	3	4.83195569210000	10.0914749684000	41.8075721200000
492	3	4.78789327080000	10.0691082582000	47.1400123048000
493	3	7.97850635940000	4.49870886670000	36.5293579066000
494	3	7.92928183650000	4.54690413260000	41.8128459987000
495	3	7.89468692650000	4.57380342510000	47.2007237000000
496	3	7.99817757850000	10.0955965052000	36.5643822868000
497	3	8.00520760150000	9.97923220600000	41.8934312208000
498	3	7.86346095170000	10.0522203387000	47.2410008386000
499	3	11.2262562534000	4.65866477390000	36.4377005540000
500	3	11.0686718387000	4.51443900970000	41.8955613094000
501	3	10.9892474933000	4.61140685300000	47.2846606667000
502	3	11.2371393166000	9.93795975970000	36.5758750340000
503	3	11.1498942199000	10.1020945899000	41.8898804004000
504	3	11.1010701928000	10.2221466552000	47.1686805067000
505	3	12.6311991295000	1.72641213390000	36.6091884796000
506	3	12.6900817005000	1.83902535850000	41.8329613009000
507	3	0.0160620888000000	1.96292566070000	47.1947342924000
508	3	12.6846555271000	7.34054106890000	36.5364289109000
509	3	12.7147515704000	7.22353959390000	41.8759322760000
510	3	-0.109790042800000	7.43535536650000	47.2075273119000
511	3	3.08552566630000	1.74444645870000	36.5915727024000
512	3	3.17723265800000	1.77444673730000	41.8374350664000
513	3	3.14164419750000	1.93693642790000	47.2037977693000
514	3	3.14315094360000	7.27140553660000	36.4952757503000
515	3	3.24304629230000	7.33009833230000	41.8289756623000
516	3	3.23056271460000	7.48432118080000	47.1628943882000
517	3	6.27530877480000	1.85837733940000	36.5172110672000
518	3	6.30302132310000	1.85822857700000	41.9473445143000
519	3	6.31525387070000	1.80952232360000	47.1416617667000
520	3	6.29965590110000	7.33726511540000	36.4441284305000
521	3	6.42789232750000	7.35851174330000	41.8600863276000