 # File generated with Atomsk by Hao on 2022-12-06 18:19:02
 
         4096 atoms
           2  atom types
 
      0.000000000000      37.9895935059  xlo xhi
      0.000000000000      37.9895935059  ylo yhi
      0.000000000000      37.9895935059  zlo zhi
 
Masses
 
            1   10.81000000             # B
            2   74.92160000             # As
 
Atoms # atomic
 
1	2	0	0	0
2	1	0	2.374349594	2.374349594
3	1	2.374349594	0	2.374349594
4	1	2.374349594	2.374349594	0
5	1	0	0	4.748699188
6	1	0	2.374349594	7.123048782
7	1	2.374349594	0	7.123048782
8	1	2.374349594	2.374349594	4.748699188
9	1	0	0	9.497398376
10	1	0	2.374349594	11.87174797
11	1	2.374349594	0	11.87174797
12	1	2.374349594	2.374349594	9.497398376
13	1	0	0	14.24609757
14	1	0	2.374349594	16.62044716
15	1	2.374349594	0	16.62044716
16	1	2.374349594	2.374349594	14.24609757
17	1	0	0	18.99479675
18	1	0	2.374349594	21.36914635
19	1	2.374349594	0	21.36914635
20	1	2.374349594	2.374349594	18.99479675
21	1	0	0	23.74349594
22	1	0	2.374349594	26.11784554
23	1	2.374349594	0	26.11784554
24	1	2.374349594	2.374349594	23.74349594
25	1	0	0	28.49219513
26	1	0	2.374349594	30.86654472
27	1	2.374349594	0	30.86654472
28	1	2.374349594	2.374349594	28.49219513
29	1	0	0	33.24089432
30	1	0	2.374349594	35.61524391
31	1	2.374349594	0	35.61524391
32	1	2.374349594	2.374349594	33.24089432
33	1	0	4.748699188	0
34	1	0	7.123048782	2.374349594
35	1	2.374349594	4.748699188	2.374349594
36	1	2.374349594	7.123048782	0
37	1	0	4.748699188	4.748699188
38	1	0	7.123048782	7.123048782
39	1	2.374349594	4.748699188	7.123048782
40	1	2.374349594	7.123048782	4.748699188
41	1	0	4.748699188	9.497398376
42	1	0	7.123048782	11.87174797
43	1	2.374349594	4.748699188	11.87174797
44	1	2.374349594	7.123048782	9.497398376
45	1	0	4.748699188	14.24609757
46	1	0	7.123048782	16.62044716
47	1	2.374349594	4.748699188	16.62044716
48	1	2.374349594	7.123048782	14.24609757
49	1	0	4.748699188	18.99479675
50	1	0	7.123048782	21.36914635
51	1	2.374349594	4.748699188	21.36914635
52	1	2.374349594	7.123048782	18.99479675
53	1	0	4.748699188	23.74349594
54	1	0	7.123048782	26.11784554
55	1	2.374349594	4.748699188	26.11784554
56	1	2.374349594	7.123048782	23.74349594
57	1	0	4.748699188	28.49219513
58	1	0	7.123048782	30.86654472
59	1	2.374349594	4.748699188	30.86654472
60	1	2.374349594	7.123048782	28.49219513
61	1	0	4.748699188	33.24089432
62	1	0	7.123048782	35.61524391
63	1	2.374349594	4.748699188	35.61524391
64	1	2.374349594	7.123048782	33.24089432
65	1	0	9.497398376	0
66	1	0	11.87174797	2.374349594
67	1	2.374349594	9.497398376	2.374349594
68	1	2.374349594	11.87174797	0
69	1	0	9.497398376	4.748699188
70	1	0	11.87174797	7.123048782
71	1	2.374349594	9.497398376	7.123048782
72	1	2.374349594	11.87174797	4.748699188
73	1	0	9.497398376	9.497398376
74	1	0	11.87174797	11.87174797
75	1	2.374349594	9.497398376	11.87174797
76	1	2.374349594	11.87174797	9.497398376
77	1	0	9.497398376	14.24609757
78	1	0	11.87174797	16.62044716
79	1	2.374349594	9.497398376	16.62044716
80	1	2.374349594	11.87174797	14.24609757
81	1	0	9.497398376	18.99479675
82	1	0	11.87174797	21.36914635
83	1	2.374349594	9.497398376	21.36914635
84	1	2.374349594	11.87174797	18.99479675
85	1	0	9.497398376	23.74349594
86	1	0	11.87174797	26.11784554
87	1	2.374349594	9.497398376	26.11784554
88	1	2.374349594	11.87174797	23.74349594
89	1	0	9.497398376	28.49219513
90	1	0	11.87174797	30.86654472
91	1	2.374349594	9.497398376	30.86654472
92	1	2.374349594	11.87174797	28.49219513
93	1	0	9.497398376	33.24089432
94	1	0	11.87174797	35.61524391
95	1	2.374349594	9.497398376	35.61524391
96	1	2.374349594	11.87174797	33.24089432
97	1	0	14.24609757	0
98	1	0	16.62044716	2.374349594
99	1	2.374349594	14.24609757	2.374349594
100	1	2.374349594	16.62044716	0
101	1	0	14.24609757	4.748699188
102	1	0	16.62044716	7.123048782
103	1	2.374349594	14.24609757	7.123048782
104	1	2.374349594	16.62044716	4.748699188
105	1	0	14.24609757	9.497398376
106	1	0	16.62044716	11.87174797
107	1	2.374349594	14.24609757	11.87174797
108	1	2.374349594	16.62044716	9.497398376
109	1	0	14.24609757	14.24609757
110	1	0	16.62044716	16.62044716
111	1	2.374349594	14.24609757	16.62044716
112	1	2.374349594	16.62044716	14.24609757
113	1	0	14.24609757	18.99479675
114	1	0	16.62044716	21.36914635
115	1	2.374349594	14.24609757	21.36914635
116	1	2.374349594	16.62044716	18.99479675
117	1	0	14.24609757	23.74349594
118	1	0	16.62044716	26.11784554
119	1	2.374349594	14.24609757	26.11784554
120	1	2.374349594	16.62044716	23.74349594
121	1	0	14.24609757	28.49219513
122	1	0	16.62044716	30.86654472
123	1	2.374349594	14.24609757	30.86654472
124	1	2.374349594	16.62044716	28.49219513
125	1	0	14.24609757	33.24089432
126	1	0	16.62044716	35.61524391
127	1	2.374349594	14.24609757	35.61524391
128	1	2.374349594	16.62044716	33.24089432
129	1	0	18.99479675	0
130	1	0	21.36914635	2.374349594
131	1	2.374349594	18.99479675	2.374349594
132	1	2.374349594	21.36914635	0
133	1	0	18.99479675	4.748699188
134	1	0	21.36914635	7.123048782
135	1	2.374349594	18.99479675	7.123048782
136	1	2.374349594	21.36914635	4.748699188
137	1	0	18.99479675	9.497398376
138	1	0	21.36914635	11.87174797
139	1	2.374349594	18.99479675	11.87174797
140	1	2.374349594	21.36914635	9.497398376
141	1	0	18.99479675	14.24609757
142	1	0	21.36914635	16.62044716
143	1	2.374349594	18.99479675	16.62044716
144	1	2.374349594	21.36914635	14.24609757
145	1	0	18.99479675	18.99479675
146	1	0	21.36914635	21.36914635
147	1	2.374349594	18.99479675	21.36914635
148	1	2.374349594	21.36914635	18.99479675
149	1	0	18.99479675	23.74349594
150	1	0	21.36914635	26.11784554
151	1	2.374349594	18.99479675	26.11784554
152	1	2.374349594	21.36914635	23.74349594
153	1	0	18.99479675	28.49219513
154	1	0	21.36914635	30.86654472
155	1	2.374349594	18.99479675	30.86654472
156	1	2.374349594	21.36914635	28.49219513
157	1	0	18.99479675	33.24089432
158	1	0	21.36914635	35.61524391
159	1	2.374349594	18.99479675	35.61524391
160	1	2.374349594	21.36914635	33.24089432
161	1	0	23.74349594	0
162	1	0	26.11784554	2.374349594
163	1	2.374349594	23.74349594	2.374349594
164	1	2.374349594	26.11784554	0
165	1	0	23.74349594	4.748699188
166	1	0	26.11784554	7.123048782
167	1	2.374349594	23.74349594	7.123048782
168	1	2.374349594	26.11784554	4.748699188
169	1	0	23.74349594	9.497398376
170	1	0	26.11784554	11.87174797
171	1	2.374349594	23.74349594	11.87174797
172	1	2.374349594	26.11784554	9.497398376
173	1	0	23.74349594	14.24609757
174	1	0	26.11784554	16.62044716
175	1	2.374349594	23.74349594	16.62044716
176	1	2.374349594	26.11784554	14.24609757
177	1	0	23.74349594	18.99479675
178	1	0	26.11784554	21.36914635
179	1	2.374349594	23.74349594	21.36914635
180	1	2.374349594	26.11784554	18.99479675
181	1	0	23.74349594	23.74349594
182	1	0	26.11784554	26.11784554
183	1	2.374349594	23.74349594	26.11784554
184	1	2.374349594	26.11784554	23.74349594
185	1	0	23.74349594	28.49219513
186	1	0	26.11784554	30.86654472
187	1	2.374349594	23.74349594	30.86654472
188	1	2.374349594	26.11784554	28.49219513
189	1	0	23.74349594	33.24089432
190	1	0	26.11784554	35.61524391
191	1	2.374349594	23.74349594	35.61524391
192	1	2.374349594	26.11784554	33.24089432
193	1	0	28.49219513	0
194	1	0	30.86654472	2.374349594
195	1	2.374349594	28.49219513	2.374349594
196	1	2.374349594	30.86654472	0
197	1	0	28.49219513	4.748699188
198	1	0	30.86654472	7.123048782
199	1	2.374349594	28.49219513	7.123048782
200	1	2.374349594	30.86654472	4.748699188
201	1	0	28.49219513	9.497398376
202	1	0	30.86654472	11.87174797
203	1	2.374349594	28.49219513	11.87174797
204	1	2.374349594	30.86654472	9.497398376
205	1	0	28.49219513	14.24609757
206	1	0	30.86654472	16.62044716
207	1	2.374349594	28.49219513	16.62044716
208	1	2.374349594	30.86654472	14.24609757
209	1	0	28.49219513	18.99479675
210	1	0	30.86654472	21.36914635
211	1	2.374349594	28.49219513	21.36914635
212	1	2.374349594	30.86654472	18.99479675
213	1	0	28.49219513	23.74349594
214	1	0	30.86654472	26.11784554
215	1	2.374349594	28.49219513	26.11784554
216	1	2.374349594	30.86654472	23.74349594
217	1	0	28.49219513	28.49219513
218	1	0	30.86654472	30.86654472
219	1	2.374349594	28.49219513	30.86654472
220	1	2.374349594	30.86654472	28.49219513
221	1	0	28.49219513	33.24089432
222	1	0	30.86654472	35.61524391
223	1	2.374349594	28.49219513	35.61524391
224	1	2.374349594	30.86654472	33.24089432
225	1	0	33.24089432	0
226	1	0	35.61524391	2.374349594
227	1	2.374349594	33.24089432	2.374349594
228	1	2.374349594	35.61524391	0
229	1	0	33.24089432	4.748699188
230	1	0	35.61524391	7.123048782
231	1	2.374349594	33.24089432	7.123048782
232	1	2.374349594	35.61524391	4.748699188
233	1	0	33.24089432	9.497398376
234	1	0	35.61524391	11.87174797
235	1	2.374349594	33.24089432	11.87174797
236	1	2.374349594	35.61524391	9.497398376
237	1	0	33.24089432	14.24609757
238	1	0	35.61524391	16.62044716
239	1	2.374349594	33.24089432	16.62044716
240	1	2.374349594	35.61524391	14.24609757
241	1	0	33.24089432	18.99479675
242	1	0	35.61524391	21.36914635
243	1	2.374349594	33.24089432	21.36914635
244	1	2.374349594	35.61524391	18.99479675
245	1	0	33.24089432	23.74349594
246	1	0	35.61524391	26.11784554
247	1	2.374349594	33.24089432	26.11784554
248	1	2.374349594	35.61524391	23.74349594
249	1	0	33.24089432	28.49219513
250	1	0	35.61524391	30.86654472
251	1	2.374349594	33.24089432	30.86654472
252	1	2.374349594	35.61524391	28.49219513
253	1	0	33.24089432	33.24089432
254	1	0	35.61524391	35.61524391
255	1	2.374349594	33.24089432	35.61524391
256	1	2.374349594	35.61524391	33.24089432
257	1	4.748699188	0	0
258	1	4.748699188	2.374349594	2.374349594
259	1	7.123048782	0	2.374349594
260	1	7.123048782	2.374349594	0
261	1	4.748699188	0	4.748699188
262	1	4.748699188	2.374349594	7.123048782
263	1	7.123048782	0	7.123048782
264	1	7.123048782	2.374349594	4.748699188
265	1	4.748699188	0	9.497398376
266	1	4.748699188	2.374349594	11.87174797
267	1	7.123048782	0	11.87174797
268	1	7.123048782	2.374349594	9.497398376
269	1	4.748699188	0	14.24609757
270	1	4.748699188	2.374349594	16.62044716
271	1	7.123048782	0	16.62044716
272	1	7.123048782	2.374349594	14.24609757
273	1	4.748699188	0	18.99479675
274	1	4.748699188	2.374349594	21.36914635
275	1	7.123048782	0	21.36914635
276	1	7.123048782	2.374349594	18.99479675
277	1	4.748699188	0	23.74349594
278	1	4.748699188	2.374349594	26.11784554
279	1	7.123048782	0	26.11784554
280	1	7.123048782	2.374349594	23.74349594
281	1	4.748699188	0	28.49219513
282	1	4.748699188	2.374349594	30.86654472
283	1	7.123048782	0	30.86654472
284	1	7.123048782	2.374349594	28.49219513
285	1	4.748699188	0	33.24089432
286	1	4.748699188	2.374349594	35.61524391
287	1	7.123048782	0	35.61524391
288	1	7.123048782	2.374349594	33.24089432
289	1	4.748699188	4.748699188	0
290	1	4.748699188	7.123048782	2.374349594
291	1	7.123048782	4.748699188	2.374349594
292	1	7.123048782	7.123048782	0
293	1	4.748699188	4.748699188	4.748699188
294	1	4.748699188	7.123048782	7.123048782
295	1	7.123048782	4.748699188	7.123048782
296	1	7.123048782	7.123048782	4.748699188
297	1	4.748699188	4.748699188	9.497398376
298	1	4.748699188	7.123048782	11.87174797
299	1	7.123048782	4.748699188	11.87174797
300	1	7.123048782	7.123048782	9.497398376
301	1	4.748699188	4.748699188	14.24609757
302	1	4.748699188	7.123048782	16.62044716
303	1	7.123048782	4.748699188	16.62044716
304	1	7.123048782	7.123048782	14.24609757
305	1	4.748699188	4.748699188	18.99479675
306	1	4.748699188	7.123048782	21.36914635
307	1	7.123048782	4.748699188	21.36914635
308	1	7.123048782	7.123048782	18.99479675
309	1	4.748699188	4.748699188	23.74349594
310	1	4.748699188	7.123048782	26.11784554
311	1	7.123048782	4.748699188	26.11784554
312	1	7.123048782	7.123048782	23.74349594
313	1	4.748699188	4.748699188	28.49219513
314	1	4.748699188	7.123048782	30.86654472
315	1	7.123048782	4.748699188	30.86654472
316	1	7.123048782	7.123048782	28.49219513
317	1	4.748699188	4.748699188	33.24089432
318	1	4.748699188	7.123048782	35.61524391
319	1	7.123048782	4.748699188	35.61524391
320	1	7.123048782	7.123048782	33.24089432
321	1	4.748699188	9.497398376	0
322	1	4.748699188	11.87174797	2.374349594
323	1	7.123048782	9.497398376	2.374349594
324	1	7.123048782	11.87174797	0
325	1	4.748699188	9.497398376	4.748699188
326	1	4.748699188	11.87174797	7.123048782
327	1	7.123048782	9.497398376	7.123048782
328	1	7.123048782	11.87174797	4.748699188
329	1	4.748699188	9.497398376	9.497398376
330	1	4.748699188	11.87174797	11.87174797
331	1	7.123048782	9.497398376	11.87174797
332	1	7.123048782	11.87174797	9.497398376
333	1	4.748699188	9.497398376	14.24609757
334	1	4.748699188	11.87174797	16.62044716
335	1	7.123048782	9.497398376	16.62044716
336	1	7.123048782	11.87174797	14.24609757
337	1	4.748699188	9.497398376	18.99479675
338	1	4.748699188	11.87174797	21.36914635
339	1	7.123048782	9.497398376	21.36914635
340	1	7.123048782	11.87174797	18.99479675
341	1	4.748699188	9.497398376	23.74349594
342	1	4.748699188	11.87174797	26.11784554
343	1	7.123048782	9.497398376	26.11784554
344	1	7.123048782	11.87174797	23.74349594
345	1	4.748699188	9.497398376	28.49219513
346	1	4.748699188	11.87174797	30.86654472
347	1	7.123048782	9.497398376	30.86654472
348	1	7.123048782	11.87174797	28.49219513
349	1	4.748699188	9.497398376	33.24089432
350	1	4.748699188	11.87174797	35.61524391
351	1	7.123048782	9.497398376	35.61524391
352	1	7.123048782	11.87174797	33.24089432
353	1	4.748699188	14.24609757	0
354	1	4.748699188	16.62044716	2.374349594
355	1	7.123048782	14.24609757	2.374349594
356	1	7.123048782	16.62044716	0
357	1	4.748699188	14.24609757	4.748699188
358	1	4.748699188	16.62044716	7.123048782
359	1	7.123048782	14.24609757	7.123048782
360	1	7.123048782	16.62044716	4.748699188
361	1	4.748699188	14.24609757	9.497398376
362	1	4.748699188	16.62044716	11.87174797
363	1	7.123048782	14.24609757	11.87174797
364	1	7.123048782	16.62044716	9.497398376
365	1	4.748699188	14.24609757	14.24609757
366	1	4.748699188	16.62044716	16.62044716
367	1	7.123048782	14.24609757	16.62044716
368	1	7.123048782	16.62044716	14.24609757
369	1	4.748699188	14.24609757	18.99479675
370	1	4.748699188	16.62044716	21.36914635
371	1	7.123048782	14.24609757	21.36914635
372	1	7.123048782	16.62044716	18.99479675
373	1	4.748699188	14.24609757	23.74349594
374	1	4.748699188	16.62044716	26.11784554
375	1	7.123048782	14.24609757	26.11784554
376	1	7.123048782	16.62044716	23.74349594
377	1	4.748699188	14.24609757	28.49219513
378	1	4.748699188	16.62044716	30.86654472
379	1	7.123048782	14.24609757	30.86654472
380	1	7.123048782	16.62044716	28.49219513
381	1	4.748699188	14.24609757	33.24089432
382	1	4.748699188	16.62044716	35.61524391
383	1	7.123048782	14.24609757	35.61524391
384	1	7.123048782	16.62044716	33.24089432
385	1	4.748699188	18.99479675	0
386	1	4.748699188	21.36914635	2.374349594
387	1	7.123048782	18.99479675	2.374349594
388	1	7.123048782	21.36914635	0
389	1	4.748699188	18.99479675	4.748699188
390	1	4.748699188	21.36914635	7.123048782
391	1	7.123048782	18.99479675	7.123048782
392	1	7.123048782	21.36914635	4.748699188
393	1	4.748699188	18.99479675	9.497398376
394	1	4.748699188	21.36914635	11.87174797
395	1	7.123048782	18.99479675	11.87174797
396	1	7.123048782	21.36914635	9.497398376
397	1	4.748699188	18.99479675	14.24609757
398	1	4.748699188	21.36914635	16.62044716
399	1	7.123048782	18.99479675	16.62044716
400	1	7.123048782	21.36914635	14.24609757
401	1	4.748699188	18.99479675	18.99479675
402	1	4.748699188	21.36914635	21.36914635
403	1	7.123048782	18.99479675	21.36914635
404	1	7.123048782	21.36914635	18.99479675
405	1	4.748699188	18.99479675	23.74349594
406	1	4.748699188	21.36914635	26.11784554
407	1	7.123048782	18.99479675	26.11784554
408	1	7.123048782	21.36914635	23.74349594
409	1	4.748699188	18.99479675	28.49219513
410	1	4.748699188	21.36914635	30.86654472
411	1	7.123048782	18.99479675	30.86654472
412	1	7.123048782	21.36914635	28.49219513
413	1	4.748699188	18.99479675	33.24089432
414	1	4.748699188	21.36914635	35.61524391
415	1	7.123048782	18.99479675	35.61524391
416	1	7.123048782	21.36914635	33.24089432
417	1	4.748699188	23.74349594	0
418	1	4.748699188	26.11784554	2.374349594
419	1	7.123048782	23.74349594	2.374349594
420	1	7.123048782	26.11784554	0
421	1	4.748699188	23.74349594	4.748699188
422	1	4.748699188	26.11784554	7.123048782
423	1	7.123048782	23.74349594	7.123048782
424	1	7.123048782	26.11784554	4.748699188
425	1	4.748699188	23.74349594	9.497398376
426	1	4.748699188	26.11784554	11.87174797
427	1	7.123048782	23.74349594	11.87174797
428	1	7.123048782	26.11784554	9.497398376
429	1	4.748699188	23.74349594	14.24609757
430	1	4.748699188	26.11784554	16.62044716
431	1	7.123048782	23.74349594	16.62044716
432	1	7.123048782	26.11784554	14.24609757
433	1	4.748699188	23.74349594	18.99479675
434	1	4.748699188	26.11784554	21.36914635
435	1	7.123048782	23.74349594	21.36914635
436	1	7.123048782	26.11784554	18.99479675
437	1	4.748699188	23.74349594	23.74349594
438	1	4.748699188	26.11784554	26.11784554
439	1	7.123048782	23.74349594	26.11784554
440	1	7.123048782	26.11784554	23.74349594
441	1	4.748699188	23.74349594	28.49219513
442	1	4.748699188	26.11784554	30.86654472
443	1	7.123048782	23.74349594	30.86654472
444	1	7.123048782	26.11784554	28.49219513
445	1	4.748699188	23.74349594	33.24089432
446	1	4.748699188	26.11784554	35.61524391
447	1	7.123048782	23.74349594	35.61524391
448	1	7.123048782	26.11784554	33.24089432
449	1	4.748699188	28.49219513	0
450	1	4.748699188	30.86654472	2.374349594
451	1	7.123048782	28.49219513	2.374349594
452	1	7.123048782	30.86654472	0
453	1	4.748699188	28.49219513	4.748699188
454	1	4.748699188	30.86654472	7.123048782
455	1	7.123048782	28.49219513	7.123048782
456	1	7.123048782	30.86654472	4.748699188
457	1	4.748699188	28.49219513	9.497398376
458	1	4.748699188	30.86654472	11.87174797
459	1	7.123048782	28.49219513	11.87174797
460	1	7.123048782	30.86654472	9.497398376
461	1	4.748699188	28.49219513	14.24609757
462	1	4.748699188	30.86654472	16.62044716
463	1	7.123048782	28.49219513	16.62044716
464	1	7.123048782	30.86654472	14.24609757
465	1	4.748699188	28.49219513	18.99479675
466	1	4.748699188	30.86654472	21.36914635
467	1	7.123048782	28.49219513	21.36914635
468	1	7.123048782	30.86654472	18.99479675
469	1	4.748699188	28.49219513	23.74349594
470	1	4.748699188	30.86654472	26.11784554
471	1	7.123048782	28.49219513	26.11784554
472	1	7.123048782	30.86654472	23.74349594
473	1	4.748699188	28.49219513	28.49219513
474	1	4.748699188	30.86654472	30.86654472
475	1	7.123048782	28.49219513	30.86654472
476	1	7.123048782	30.86654472	28.49219513
477	1	4.748699188	28.49219513	33.24089432
478	1	4.748699188	30.86654472	35.61524391
479	1	7.123048782	28.49219513	35.61524391
480	1	7.123048782	30.86654472	33.24089432
481	1	4.748699188	33.24089432	0
482	1	4.748699188	35.61524391	2.374349594
483	1	7.123048782	33.24089432	2.374349594
484	1	7.123048782	35.61524391	0
485	1	4.748699188	33.24089432	4.748699188
486	1	4.748699188	35.61524391	7.123048782
487	1	7.123048782	33.24089432	7.123048782
488	1	7.123048782	35.61524391	4.748699188
489	1	4.748699188	33.24089432	9.497398376
490	1	4.748699188	35.61524391	11.87174797
491	1	7.123048782	33.24089432	11.87174797
492	1	7.123048782	35.61524391	9.497398376
493	1	4.748699188	33.24089432	14.24609757
494	1	4.748699188	35.61524391	16.62044716
495	1	7.123048782	33.24089432	16.62044716
496	1	7.123048782	35.61524391	14.24609757
497	1	4.748699188	33.24089432	18.99479675
498	1	4.748699188	35.61524391	21.36914635
499	1	7.123048782	33.24089432	21.36914635
500	1	7.123048782	35.61524391	18.99479675
501	1	4.748699188	33.24089432	23.74349594
502	1	4.748699188	35.61524391	26.11784554
503	1	7.123048782	33.24089432	26.11784554
504	1	7.123048782	35.61524391	23.74349594
505	1	4.748699188	33.24089432	28.49219513
506	1	4.748699188	35.61524391	30.86654472
507	1	7.123048782	33.24089432	30.86654472
508	1	7.123048782	35.61524391	28.49219513
509	1	4.748699188	33.24089432	33.24089432
510	1	4.748699188	35.61524391	35.61524391
511	1	7.123048782	33.24089432	35.61524391
512	1	7.123048782	35.61524391	33.24089432
513	1	9.497398376	0	0
514	1	9.497398376	2.374349594	2.374349594
515	1	11.87174797	0	2.374349594
516	1	11.87174797	2.374349594	0
517	1	9.497398376	0	4.748699188
518	1	9.497398376	2.374349594	7.123048782
519	1	11.87174797	0	7.123048782
520	1	11.87174797	2.374349594	4.748699188
521	1	9.497398376	0	9.497398376
522	1	9.497398376	2.374349594	11.87174797
523	1	11.87174797	0	11.87174797
524	1	11.87174797	2.374349594	9.497398376
525	1	9.497398376	0	14.24609757
526	1	9.497398376	2.374349594	16.62044716
527	1	11.87174797	0	16.62044716
528	1	11.87174797	2.374349594	14.24609757
529	1	9.497398376	0	18.99479675
530	1	9.497398376	2.374349594	21.36914635
531	1	11.87174797	0	21.36914635
532	1	11.87174797	2.374349594	18.99479675
533	1	9.497398376	0	23.74349594
534	1	9.497398376	2.374349594	26.11784554
535	1	11.87174797	0	26.11784554
536	1	11.87174797	2.374349594	23.74349594
537	1	9.497398376	0	28.49219513
538	1	9.497398376	2.374349594	30.86654472
539	1	11.87174797	0	30.86654472
540	1	11.87174797	2.374349594	28.49219513
541	1	9.497398376	0	33.24089432
542	1	9.497398376	2.374349594	35.61524391
543	1	11.87174797	0	35.61524391
544	1	11.87174797	2.374349594	33.24089432
545	1	9.497398376	4.748699188	0
546	1	9.497398376	7.123048782	2.374349594
547	1	11.87174797	4.748699188	2.374349594
548	1	11.87174797	7.123048782	0
549	1	9.497398376	4.748699188	4.748699188
550	1	9.497398376	7.123048782	7.123048782
551	1	11.87174797	4.748699188	7.123048782
552	1	11.87174797	7.123048782	4.748699188
553	1	9.497398376	4.748699188	9.497398376
554	1	9.497398376	7.123048782	11.87174797
555	1	11.87174797	4.748699188	11.87174797
556	1	11.87174797	7.123048782	9.497398376
557	1	9.497398376	4.748699188	14.24609757
558	1	9.497398376	7.123048782	16.62044716
559	1	11.87174797	4.748699188	16.62044716
560	1	11.87174797	7.123048782	14.24609757
561	1	9.497398376	4.748699188	18.99479675
562	1	9.497398376	7.123048782	21.36914635
563	1	11.87174797	4.748699188	21.36914635
564	1	11.87174797	7.123048782	18.99479675
565	1	9.497398376	4.748699188	23.74349594
566	1	9.497398376	7.123048782	26.11784554
567	1	11.87174797	4.748699188	26.11784554
568	1	11.87174797	7.123048782	23.74349594
569	1	9.497398376	4.748699188	28.49219513
570	1	9.497398376	7.123048782	30.86654472
571	1	11.87174797	4.748699188	30.86654472
572	1	11.87174797	7.123048782	28.49219513
573	1	9.497398376	4.748699188	33.24089432
574	1	9.497398376	7.123048782	35.61524391
575	1	11.87174797	4.748699188	35.61524391
576	1	11.87174797	7.123048782	33.24089432
577	1	9.497398376	9.497398376	0
578	1	9.497398376	11.87174797	2.374349594
579	1	11.87174797	9.497398376	2.374349594
580	1	11.87174797	11.87174797	0
581	1	9.497398376	9.497398376	4.748699188
582	1	9.497398376	11.87174797	7.123048782
583	1	11.87174797	9.497398376	7.123048782
584	1	11.87174797	11.87174797	4.748699188
585	1	9.497398376	9.497398376	9.497398376
586	1	9.497398376	11.87174797	11.87174797
587	1	11.87174797	9.497398376	11.87174797
588	1	11.87174797	11.87174797	9.497398376
589	1	9.497398376	9.497398376	14.24609757
590	1	9.497398376	11.87174797	16.62044716
591	1	11.87174797	9.497398376	16.62044716
592	1	11.87174797	11.87174797	14.24609757
593	1	9.497398376	9.497398376	18.99479675
594	1	9.497398376	11.87174797	21.36914635
595	1	11.87174797	9.497398376	21.36914635
596	1	11.87174797	11.87174797	18.99479675
597	1	9.497398376	9.497398376	23.74349594
598	1	9.497398376	11.87174797	26.11784554
599	1	11.87174797	9.497398376	26.11784554
600	1	11.87174797	11.87174797	23.74349594
601	1	9.497398376	9.497398376	28.49219513
602	1	9.497398376	11.87174797	30.86654472
603	1	11.87174797	9.497398376	30.86654472
604	1	11.87174797	11.87174797	28.49219513
605	1	9.497398376	9.497398376	33.24089432
606	1	9.497398376	11.87174797	35.61524391
607	1	11.87174797	9.497398376	35.61524391
608	1	11.87174797	11.87174797	33.24089432
609	1	9.497398376	14.24609757	0
610	1	9.497398376	16.62044716	2.374349594
611	1	11.87174797	14.24609757	2.374349594
612	1	11.87174797	16.62044716	0
613	1	9.497398376	14.24609757	4.748699188
614	1	9.497398376	16.62044716	7.123048782
615	1	11.87174797	14.24609757	7.123048782
616	1	11.87174797	16.62044716	4.748699188
617	1	9.497398376	14.24609757	9.497398376
618	1	9.497398376	16.62044716	11.87174797
619	1	11.87174797	14.24609757	11.87174797
620	1	11.87174797	16.62044716	9.497398376
621	1	9.497398376	14.24609757	14.24609757
622	1	9.497398376	16.62044716	16.62044716
623	1	11.87174797	14.24609757	16.62044716
624	1	11.87174797	16.62044716	14.24609757
625	1	9.497398376	14.24609757	18.99479675
626	1	9.497398376	16.62044716	21.36914635
627	1	11.87174797	14.24609757	21.36914635
628	1	11.87174797	16.62044716	18.99479675
629	1	9.497398376	14.24609757	23.74349594
630	1	9.497398376	16.62044716	26.11784554
631	1	11.87174797	14.24609757	26.11784554
632	1	11.87174797	16.62044716	23.74349594
633	1	9.497398376	14.24609757	28.49219513
634	1	9.497398376	16.62044716	30.86654472
635	1	11.87174797	14.24609757	30.86654472
636	1	11.87174797	16.62044716	28.49219513
637	1	9.497398376	14.24609757	33.24089432
638	1	9.497398376	16.62044716	35.61524391
639	1	11.87174797	14.24609757	35.61524391
640	1	11.87174797	16.62044716	33.24089432
641	1	9.497398376	18.99479675	0
642	1	9.497398376	21.36914635	2.374349594
643	1	11.87174797	18.99479675	2.374349594
644	1	11.87174797	21.36914635	0
645	1	9.497398376	18.99479675	4.748699188
646	1	9.497398376	21.36914635	7.123048782
647	1	11.87174797	18.99479675	7.123048782
648	1	11.87174797	21.36914635	4.748699188
649	1	9.497398376	18.99479675	9.497398376
650	1	9.497398376	21.36914635	11.87174797
651	1	11.87174797	18.99479675	11.87174797
652	1	11.87174797	21.36914635	9.497398376
653	1	9.497398376	18.99479675	14.24609757
654	1	9.497398376	21.36914635	16.62044716
655	1	11.87174797	18.99479675	16.62044716
656	1	11.87174797	21.36914635	14.24609757
657	1	9.497398376	18.99479675	18.99479675
658	1	9.497398376	21.36914635	21.36914635
659	1	11.87174797	18.99479675	21.36914635
660	1	11.87174797	21.36914635	18.99479675
661	1	9.497398376	18.99479675	23.74349594
662	1	9.497398376	21.36914635	26.11784554
663	1	11.87174797	18.99479675	26.11784554
664	1	11.87174797	21.36914635	23.74349594
665	1	9.497398376	18.99479675	28.49219513
666	1	9.497398376	21.36914635	30.86654472
667	1	11.87174797	18.99479675	30.86654472
668	1	11.87174797	21.36914635	28.49219513
669	1	9.497398376	18.99479675	33.24089432
670	1	9.497398376	21.36914635	35.61524391
671	1	11.87174797	18.99479675	35.61524391
672	1	11.87174797	21.36914635	33.24089432
673	1	9.497398376	23.74349594	0
674	1	9.497398376	26.11784554	2.374349594
675	1	11.87174797	23.74349594	2.374349594
676	1	11.87174797	26.11784554	0
677	1	9.497398376	23.74349594	4.748699188
678	1	9.497398376	26.11784554	7.123048782
679	1	11.87174797	23.74349594	7.123048782
680	1	11.87174797	26.11784554	4.748699188
681	1	9.497398376	23.74349594	9.497398376
682	1	9.497398376	26.11784554	11.87174797
683	1	11.87174797	23.74349594	11.87174797
684	1	11.87174797	26.11784554	9.497398376
685	1	9.497398376	23.74349594	14.24609757
686	1	9.497398376	26.11784554	16.62044716
687	1	11.87174797	23.74349594	16.62044716
688	1	11.87174797	26.11784554	14.24609757
689	1	9.497398376	23.74349594	18.99479675
690	1	9.497398376	26.11784554	21.36914635
691	1	11.87174797	23.74349594	21.36914635
692	1	11.87174797	26.11784554	18.99479675
693	1	9.497398376	23.74349594	23.74349594
694	1	9.497398376	26.11784554	26.11784554
695	1	11.87174797	23.74349594	26.11784554
696	1	11.87174797	26.11784554	23.74349594
697	1	9.497398376	23.74349594	28.49219513
698	1	9.497398376	26.11784554	30.86654472
699	1	11.87174797	23.74349594	30.86654472
700	1	11.87174797	26.11784554	28.49219513
701	1	9.497398376	23.74349594	33.24089432
702	1	9.497398376	26.11784554	35.61524391
703	1	11.87174797	23.74349594	35.61524391
704	1	11.87174797	26.11784554	33.24089432
705	1	9.497398376	28.49219513	0
706	1	9.497398376	30.86654472	2.374349594
707	1	11.87174797	28.49219513	2.374349594
708	1	11.87174797	30.86654472	0
709	1	9.497398376	28.49219513	4.748699188
710	1	9.497398376	30.86654472	7.123048782
711	1	11.87174797	28.49219513	7.123048782
712	1	11.87174797	30.86654472	4.748699188
713	1	9.497398376	28.49219513	9.497398376
714	1	9.497398376	30.86654472	11.87174797
715	1	11.87174797	28.49219513	11.87174797
716	1	11.87174797	30.86654472	9.497398376
717	1	9.497398376	28.49219513	14.24609757
718	1	9.497398376	30.86654472	16.62044716
719	1	11.87174797	28.49219513	16.62044716
720	1	11.87174797	30.86654472	14.24609757
721	1	9.497398376	28.49219513	18.99479675
722	1	9.497398376	30.86654472	21.36914635
723	1	11.87174797	28.49219513	21.36914635
724	1	11.87174797	30.86654472	18.99479675
725	1	9.497398376	28.49219513	23.74349594
726	1	9.497398376	30.86654472	26.11784554
727	1	11.87174797	28.49219513	26.11784554
728	1	11.87174797	30.86654472	23.74349594
729	1	9.497398376	28.49219513	28.49219513
730	1	9.497398376	30.86654472	30.86654472
731	1	11.87174797	28.49219513	30.86654472
732	1	11.87174797	30.86654472	28.49219513
733	1	9.497398376	28.49219513	33.24089432
734	1	9.497398376	30.86654472	35.61524391
735	1	11.87174797	28.49219513	35.61524391
736	1	11.87174797	30.86654472	33.24089432
737	1	9.497398376	33.24089432	0
738	1	9.497398376	35.61524391	2.374349594
739	1	11.87174797	33.24089432	2.374349594
740	1	11.87174797	35.61524391	0
741	1	9.497398376	33.24089432	4.748699188
742	1	9.497398376	35.61524391	7.123048782
743	1	11.87174797	33.24089432	7.123048782
744	1	11.87174797	35.61524391	4.748699188
745	1	9.497398376	33.24089432	9.497398376
746	1	9.497398376	35.61524391	11.87174797
747	1	11.87174797	33.24089432	11.87174797
748	1	11.87174797	35.61524391	9.497398376
749	1	9.497398376	33.24089432	14.24609757
750	1	9.497398376	35.61524391	16.62044716
751	1	11.87174797	33.24089432	16.62044716
752	1	11.87174797	35.61524391	14.24609757
753	1	9.497398376	33.24089432	18.99479675
754	1	9.497398376	35.61524391	21.36914635
755	1	11.87174797	33.24089432	21.36914635
756	1	11.87174797	35.61524391	18.99479675
757	1	9.497398376	33.24089432	23.74349594
758	1	9.497398376	35.61524391	26.11784554
759	1	11.87174797	33.24089432	26.11784554
760	1	11.87174797	35.61524391	23.74349594
761	1	9.497398376	33.24089432	28.49219513