 # File generated with Atomsk by Hao on 2022-12-06 18:19:02
 
         4095  atoms
           2  atom types
 
      0.000000000000      37.9895896912  xlo xhi
      0.000000000000      37.9895896912  ylo yhi
      0.000000000000      37.9895896912  zlo zhi
 
Masses
 
            1   10.81000000             # B
            2   74.92160000             # As
 
Atoms # atomic
 
1	1	0.044894825	37.8341892	0.032856071
2	1	0.044894825	9.341996935	9.530253228
3	1	9.542292809	37.8341892	9.530253228
4	1	9.542292809	9.341996935	0.032856071
5	1	0.044894825	37.8341892	19.02765065
6	1	0.044894825	9.341996935	28.52504807
7	1	9.542292809	37.8341892	28.52504807
8	1	9.542292809	9.341996935	19.02765065
9	1	0.044894825	18.83939436	0.032856071
10	1	0.044894825	28.33679178	9.530253228
11	1	9.542292809	18.83939436	9.530253228
12	1	9.542292809	28.33679178	0.032856071
13	1	0.044894825	18.83939436	19.02765065
14	1	0.044894825	28.33679178	28.52504807
15	1	9.542292809	18.83939436	28.52504807
16	1	9.542292809	28.33679178	19.02765065
17	1	19.03969023	37.8341892	0.032856071
18	1	19.03969023	9.341996935	9.530253228
19	1	28.53708766	37.8341892	9.530253228
20	1	28.53708766	9.341996935	0.032856071
21	1	19.03969023	37.8341892	19.02765065
22	1	19.03969023	9.341996935	28.52504807
23	1	28.53708766	37.8341892	28.52504807
24	1	28.53708766	9.341996935	19.02765065
25	1	19.03969023	18.83939436	0.032856071
26	1	28.53708766	18.83939436	9.530253228
27	1	28.53708766	28.33679178	0.032856071
28	1	19.03969023	18.83939436	19.02765065
29	1	19.03969023	28.33679178	28.52504807
30	1	28.53708766	18.83939436	28.52504807
31	1	28.53708766	28.33679178	19.02765065
32	1	37.96416097	2.327266035	2.395174921
33	1	37.96416097	11.82466402	11.89257206
34	1	9.471968705	2.327266035	11.89257206
35	1	9.471968705	11.82466402	2.395174921
36	1	37.96416097	2.327266035	21.38996948
37	1	37.96416097	11.82466402	30.88736691
38	1	9.471968705	2.327266035	30.88736691
39	1	9.471968705	11.82466402	21.38996948
40	1	37.96416097	21.32206145	2.395174921
41	1	37.96416097	30.81945887	11.89257206
42	1	9.471968705	21.32206145	11.89257206
43	1	9.471968705	30.81945887	2.395174921
44	1	37.96416097	21.32206145	21.38996948
45	1	37.96416097	30.81945887	30.88736691
46	1	9.471968705	21.32206145	30.88736691
47	1	9.471968705	30.81945887	21.38996948
48	1	18.96936613	2.327266035	2.395174921
49	1	18.96936613	11.82466402	11.89257206
50	1	28.46676355	2.327266035	11.89257206
51	1	28.46676355	11.82466402	2.395174921
52	1	18.96936613	2.327266035	21.38996948
53	1	18.96936613	11.82466402	30.88736691
54	1	28.46676355	2.327266035	30.88736691
55	1	28.46676355	11.82466402	21.38996948
56	1	18.96936613	21.32206145	2.395174921
57	1	18.96936613	30.81945887	11.89257206
58	1	28.46676355	21.32206145	11.89257206
59	1	28.46676355	30.81945887	2.395174921
60	1	18.96936613	21.32206145	21.38996948
61	1	18.96936613	30.81945887	30.88736691
62	1	28.46676355	21.32206145	30.88736691
63	1	28.46676355	30.81945887	21.38996948
64	1	0.074029519	4.695629	4.772367459
65	1	0.074029519	14.19302642	14.26976545
66	1	9.571427146	4.695629	14.26976545
67	1	9.571427146	14.19302642	4.772367459
68	1	0.074029519	4.695629	23.76716287
69	1	0.074029519	14.19302642	33.26456029
70	1	9.571427146	4.695629	33.26456029
71	1	9.571427146	14.19302642	23.76716287
72	1	0.074029519	23.69042385	4.772367459
73	1	0.074029519	33.18782127	14.26976545
74	1	9.571427146	23.69042385	14.26976545
75	1	9.571427146	33.18782127	4.772367459
76	1	0.074029519	23.69042385	23.76716287
77	1	0.074029519	33.18782127	33.26456029
78	1	9.571427146	23.69042385	33.26456029
79	1	9.571427146	33.18782127	23.76716287
80	1	19.06882344	4.695629	4.772367459
81	1	19.06882344	14.19302642	14.26976545
82	1	28.56622086	4.695629	14.26976545
83	1	28.56622086	14.19302642	4.772367459
84	1	19.06882344	4.695629	23.76716287
85	1	19.06882344	14.19302642	33.26456029
86	1	28.56622086	4.695629	33.26456029
87	1	28.56622086	14.19302642	23.76716287
88	1	19.06882344	23.69042385	4.772367459
89	1	19.06882344	33.18782127	14.26976545
90	1	28.56622086	23.69042385	14.26976545
91	1	28.56622086	33.18782127	4.772367459
92	1	19.06882344	23.69042385	23.76716287
93	1	19.06882344	33.18782127	33.26456029
94	1	28.56622086	23.69042385	33.26456029
95	1	28.56622086	33.18782127	23.76716287
96	1	37.98496588	6.942973458	7.113113771
97	1	37.98496588	16.44037032	16.61051176
98	1	9.492773608	6.942973458	16.61051176
99	1	9.492773608	16.44037032	7.113113771
100	1	37.98496588	6.942973458	26.10790918
101	1	37.98496588	16.44037032	35.60530661
102	1	9.492773608	6.942973458	35.60530661
103	1	9.492773608	16.44037032	26.10790918
104	1	37.98496588	25.93776774	7.113113771
105	1	37.98496588	35.43516516	16.61051176
106	1	9.492773608	25.93776774	16.61051176
107	1	9.492773608	35.43516516	7.113113771
108	1	37.98496588	25.93776774	26.10790918
109	1	37.98496588	35.43516516	35.60530661
110	1	9.492773608	25.93776774	35.60530661
111	1	9.492773608	35.43516516	26.10790918
112	1	18.99017103	6.942973458	7.113113771
113	1	18.99017103	16.44037032	16.61051176
114	1	28.48756845	6.942973458	16.61051176
115	1	28.48756845	16.44037032	7.113113771
116	1	18.99017103	6.942973458	26.10790918
117	1	18.99017103	16.44037032	35.60530661
118	1	28.48756845	6.942973458	35.60530661
119	1	28.48756845	16.44037032	26.10790918
120	1	18.99017103	25.93776774	7.113113771
121	1	18.99017103	35.43516516	16.61051176
122	1	28.48756845	25.93776774	16.61051176
123	1	28.48756845	35.43516516	7.113113771
124	1	18.99017103	25.93776774	26.10790918
125	1	18.99017103	35.43516516	35.60530661
126	1	28.48756845	25.93776774	35.60530661
127	1	28.48756845	35.43516516	26.10790918
128	1	2.440554879	37.92943028	2.474289255
129	1	2.440554879	9.437238013	11.9716864
130	1	11.93795202	37.92943028	11.9716864
131	1	11.93795202	9.437238013	2.474289255
132	1	2.440554879	37.92943028	21.46908382
133	1	2.440554879	9.437238013	30.96648124
134	1	11.93795202	37.92943028	30.96648124
135	1	11.93795202	9.437238013	21.46908382
136	1	2.440554879	18.93463544	2.474289255
137	1	2.440554879	28.43203286	11.9716864
138	1	11.93795202	18.93463544	11.9716864
139	1	11.93795202	28.43203286	2.474289255
140	1	2.440554879	18.93463544	21.46908382
141	1	2.440554879	28.43203286	30.96648124
142	1	11.93795202	18.93463544	30.96648124
143	1	11.93795202	28.43203286	21.46908382
144	1	21.43534944	37.92943028	2.474289255
145	1	21.43534944	9.437238013	11.9716864
146	1	30.93274687	37.92943028	11.9716864
147	1	30.93274687	9.437238013	2.474289255
148	1	21.43534944	37.92943028	21.46908382
149	1	21.43534944	9.437238013	30.96648124
150	1	30.93274687	37.92943028	30.96648124
151	1	30.93274687	9.437238013	21.46908382
152	1	21.43534944	18.93463544	2.474289255
153	1	21.43534944	28.43203286	11.9716864
154	1	30.93274687	18.93463544	11.9716864
155	1	30.93274687	28.43203286	2.474289255
156	1	21.43534944	18.93463544	21.46908382
157	1	21.43534944	28.43203286	30.96648124
158	1	30.93274687	18.93463544	30.96648124
159	1	30.93274687	28.43203286	21.46908382
160	1	2.414798396	2.419962826	4.726487643
161	1	2.414798396	11.91735997	14.22388507
162	1	11.9121961	2.419962826	14.22388507
163	1	11.9121961	11.91735997	4.726487643
164	1	2.414798396	2.419962826	23.72128249
165	1	2.414798396	11.91735997	33.21867991
166	1	11.9121961	2.419962826	33.21867991
167	1	11.9121961	11.91735997	23.72128249
168	1	2.414798396	21.41475739	4.726487643
169	1	2.414798396	30.91215481	14.22388507
170	1	11.9121961	21.41475739	14.22388507
171	1	11.9121961	30.91215481	4.726487643
172	1	2.414798396	21.41475739	23.72128249
173	1	2.414798396	30.91215481	33.21867991
174	1	11.9121961	21.41475739	33.21867991
175	1	11.9121961	30.91215481	23.72128249
176	1	21.40959239	2.419962826	4.726487643
177	1	21.40959239	11.91735997	14.22388507
178	1	30.90698982	2.419962826	14.22388507
179	1	30.90698982	11.91735997	4.726487643
180	1	21.40959239	2.419962826	23.72128249
181	1	21.40959239	11.91735997	33.21867991
182	1	30.90698982	2.419962826	33.21867991
183	1	30.90698982	11.91735997	23.72128249
184	1	21.40959239	21.41475739	4.726487643
185	1	21.40959239	30.91215481	14.22388507
186	1	30.90698982	21.41475739	14.22388507
187	1	30.90698982	30.91215481	4.726487643
188	1	21.40959239	21.41475739	23.72128249
189	1	21.40959239	30.91215481	33.21867991
190	1	30.90698982	21.41475739	33.21867991
191	1	30.90698982	30.91215481	23.72128249
192	1	2.504570205	4.784555921	7.217510206
193	1	2.504570205	14.28195334	16.71490763
194	1	12.00196763	4.784555921	16.71490763
195	1	12.00196763	14.28195334	7.217510206
196	1	2.504570205	4.784555921	26.21230505
197	1	2.504570205	14.28195334	35.70970248
198	1	12.00196763	4.784555921	35.70970248
199	1	12.00196763	14.28195334	26.21230505
200	1	2.504570205	23.7793519	7.217510206
201	1	2.504570205	33.27674932	16.71490763
202	1	12.00196763	23.7793519	16.71490763
203	1	12.00196763	33.27674932	7.217510206
204	1	2.504570205	23.7793519	26.21230505
205	1	2.504570205	33.27674932	35.70970248
206	1	12.00196763	23.7793519	35.70970248
207	1	12.00196763	33.27674932	26.21230505
208	1	21.49936505	4.784555921	7.217510206
209	1	21.49936505	14.28195334	16.71490763
210	1	30.99676247	4.784555921	16.71490763
211	1	30.99676247	14.28195334	7.217510206
212	1	21.49936505	4.784555921	26.21230505
213	1	21.49936505	14.28195334	35.70970248
214	1	30.99676247	4.784555921	35.70970248
215	1	30.99676247	14.28195334	26.21230505
216	1	21.49936505	23.7793519	7.217510206
217	1	21.49936505	33.27674932	16.71490763
218	1	30.99676247	23.7793519	16.71490763
219	1	30.99676247	33.27674932	7.217510206
220	1	21.49936505	23.7793519	26.21230505
221	1	21.49936505	33.27674932	35.70970248
222	1	30.99676247	23.7793519	35.70970248
223	1	30.99676247	33.27674932	26.21230505
224	1	2.471795633	7.095717856	9.612293111
225	1	2.471795633	16.59311471	19.10969053
226	1	11.96919334	7.095717856	19.10969053
227	1	11.96919334	16.59311471	9.612293111
228	1	2.471795633	7.095717856	28.60708796
229	1	2.471795633	16.59311471	0.114895688
230	1	11.96919334	7.095717856	0.114895688
231	1	11.96919334	16.59311471	28.60708796
232	1	2.471795633	26.09051214	9.612293111
233	1	2.471795633	35.58790956	19.10969053
234	1	11.96919334	26.09051214	19.10969053
235	1	11.96919334	35.58790956	9.612293111
236	1	2.471795633	26.09051214	28.60708796
237	1	2.471795633	35.58790956	0.114895688
238	1	11.96919334	26.09051214	0.114895688
239	1	11.96919334	35.58790956	28.60708796
240	1	21.46659076	7.095717856	9.612293111
241	1	21.46659076	16.59311471	19.10969053
242	1	30.96398818	7.095717856	19.10969053
243	1	30.96398818	16.59311471	9.612293111
244	1	21.46659076	7.095717856	28.60708796
245	1	21.46659076	16.59311471	0.114895688
246	1	30.96398818	7.095717856	0.114895688
247	1	30.96398818	16.59311471	28.60708796
248	1	21.46659076	26.09051214	9.612293111
249	1	21.46659076	35.58790956	19.10969053
250	1	30.96398818	26.09051214	19.10969053
251	1	30.96398818	35.58790956	9.612293111
252	1	21.46659076	26.09051214	28.60708796
253	1	21.46659076	35.58790956	0.114895688
254	1	30.96398818	26.09051214	0.114895688
255	1	30.96398818	35.58790956	28.60708796
256	1	4.73695661	37.88207354	4.679092691
257	1	4.73695661	9.389881271	14.17648983
258	1	14.23435432	37.88207354	14.17648983
259	1	14.23435432	9.389881271	4.679092691
260	1	4.73695661	37.88207354	23.67388725
261	1	4.73695661	9.389881271	33.17128468
262	1	14.23435432	37.88207354	33.17128468
263	1	14.23435432	9.389881271	23.67388725
264	1	4.73695661	18.88727869	4.679092691
265	1	4.73695661	28.38467612	14.17648983
266	1	14.23435432	18.88727869	14.17648983
267	1	14.23435432	28.38467612	4.679092691
268	1	4.73695661	18.88727869	23.67388725
269	1	4.73695661	28.38467612	33.17128468
270	1	14.23435432	18.88727869	33.17128468
271	1	14.23435432	28.38467612	23.67388725
272	1	23.73175061	37.88207354	4.679092691
273	1	23.73175061	9.389881271	14.17648983
274	1	33.22914803	37.88207354	14.17648983
275	1	33.22914803	9.389881271	4.679092691
276	1	23.73175061	37.88207354	23.67388725
277	1	23.73175061	9.389881271	33.17128468
278	1	33.22914803	37.88207354	33.17128468
279	1	33.22914803	9.389881271	23.67388725
280	1	23.73175061	18.88727869	4.679092691
281	1	23.73175061	28.38467612	14.17648983
282	1	33.22914803	18.88727869	14.17648983
283	1	33.22914803	28.38467612	4.679092691
284	1	23.73175061	18.88727869	23.67388725
285	1	23.73175061	28.38467612	33.17128468
286	1	33.22914803	18.88727869	33.17128468
287	1	33.22914803	28.38467612	23.67388725
288	1	4.798371889	2.311996634	7.172115529
289	1	4.798371889	11.80939434	16.66951295
290	1	14.29576931	2.311996634	16.66951295
291	1	14.29576931	11.80939434	7.172115529
292	1	4.798371889	2.311996634	26.16691151
293	1	4.798371889	11.80939434	35.66430893
294	1	14.29576931	2.311996634	35.66430893
295	1	14.29576931	11.80939434	26.16691151
296	1	4.798371889	21.30679063	7.172115529
297	1	4.798371889	30.80418805	16.66951295
298	1	14.29576931	21.30679063	16.66951295
299	1	14.29576931	30.80418805	7.172115529
300	1	4.798371889	21.30679063	26.16691151
301	1	4.798371889	30.80418805	35.66430893
302	1	14.29576931	21.30679063	35.66430893
303	1	14.29576931	30.80418805	26.16691151
304	1	23.79316674	2.311996634	7.172115529
305	1	23.79316674	11.80939434	16.66951295
306	1	33.29056416	2.311996634	16.66951295
307	1	33.29056416	11.80939434	7.172115529
308	1	23.79316674	2.311996634	26.16691151
309	1	23.79316674	11.80939434	35.66430893
310	1	33.29056416	2.311996634	35.66430893
311	1	33.29056416	11.80939434	26.16691151
312	1	23.79316674	21.30679063	7.172115529
313	1	23.79316674	30.80418805	16.66951295
314	1	33.29056416	21.30679063	16.66951295
315	1	33.29056416	30.80418805	7.172115529
316	1	23.79316674	21.30679063	26.16691151
317	1	23.79316674	30.80418805	35.66430893
318	1	33.29056416	21.30679063	35.66430893
319	1	33.29056416	30.80418805	26.16691151
320	1	4.81106417	4.719959788	9.455519291
321	1	4.81106417	14.21735693	18.95291671
322	1	14.30846103	4.719959788	18.95291671
323	1	14.30846103	14.21735693	9.455519291
324	1	4.81106417	4.719959788	28.45031527
325	1	4.81106417	14.21735693	37.94771269
326	1	14.30846103	4.719959788	37.94771269
327	1	14.30846103	14.21735693	28.45031527
328	1	4.81106417	23.71475435	9.455519291
329	1	4.81106417	33.21215177	18.95291671
330	1	14.30846103	23.71475435	18.95291671
331	1	14.30846103	33.21215177	9.455519291
332	1	4.81106417	23.71475435	28.45031527
333	1	4.81106417	33.21215177	37.94771269
334	1	14.30846103	23.71475435	37.94771269
335	1	14.30846103	33.21215177	28.45031527
336	1	23.80585845	4.719959788	9.455519291
337	1	23.80585845	14.21735693	18.95291671
338	1	33.30325587	4.719959788	18.95291671
339	1	33.30325587	14.21735693	9.455519291
340	1	23.80585845	4.719959788	28.45031527
341	1	23.80585845	14.21735693	37.94771269
342	1	33.30325587	4.719959788	37.94771269
343	1	33.30325587	14.21735693	28.45031527
344	1	23.80585845	23.71475435	9.455519291
345	1	23.80585845	33.21215177	18.95291671
346	1	33.30325587	23.71475435	18.95291671
347	1	33.30325587	33.21215177	9.455519291
348	1	23.80585845	23.71475435	28.45031527
349	1	23.80585845	33.21215177	37.94771269
350	1	33.30325587	23.71475435	37.94771269
351	1	33.30325587	33.21215177	28.45031527
352	1	4.675423302	7.051724816	11.85776891
353	1	4.675423302	16.54912281	21.35516633
354	1	14.17282044	7.051724816	21.35516633
355	1	14.17282044	16.54912281	11.85776891
356	1	4.675423302	7.051724816	30.85256375
357	1	4.675423302	16.54912281	2.360371486
358	1	14.17282044	7.051724816	2.360371486
359	1	14.17282044	16.54912281	30.85256375
360	1	4.675423302	26.04652023	11.85776891
361	1	4.675423302	35.54391765	21.35516633
362	1	14.17282044	26.04652023	21.35516633
363	1	14.17282044	35.54391765	11.85776891
364	1	4.675423302	26.04652023	30.85256375
365	1	4.675423302	35.54391765	2.360371486
366	1	14.17282044	26.04652023	2.360371486
367	1	14.17282044	35.54391765	30.85256375
368	1	23.670219	7.051724816	11.85776891
369	1	23.670219	16.54912281	21.35516633
370	1	33.16761642	7.051724816	21.35516633
371	1	33.16761642	16.54912281	11.85776891
372	1	23.670219	7.051724816	30.85256375
373	1	23.670219	16.54912281	2.360371486
374	1	33.16761642	7.051724816	2.360371486
375	1	33.16761642	16.54912281	30.85256375
376	1	23.670219	26.04652023	11.85776891
377	1	23.670219	35.54391765	21.35516633
378	1	33.16761642	26.04652023	21.35516633
379	1	33.16761642	35.54391765	11.85776891
380	1	23.670219	26.04652023	30.85256375
381	1	23.670219	35.54391765	2.360371486
382	1	33.16761642	26.04652023	2.360371486
383	1	33.16761642	35.54391765	30.85256375
384	1	7.220851264	37.91821493	7.189120277
385	1	7.220851264	9.426022657	16.68651713
386	1	16.71824869	37.91821493	16.68651713
387	1	16.71824869	9.426022657	7.189120277
388	1	7.220851264	37.91821493	26.18391456
389	1	7.220851264	9.426022657	35.68131198
390	1	16.71824869	37.91821493	35.68131198
391	1	16.71824869	9.426022657	26.18391456
392	1	7.220851264	18.92342008	7.189120277
393	1	7.220851264	28.4208175	16.68651713
394	1	16.71824869	18.92342008	16.68651713
395	1	16.71824869	28.4208175	7.189120277
396	1	7.220851264	18.92342008	26.18391456
397	1	7.220851264	28.4208175	35.68131198
398	1	16.71824869	18.92342008	35.68131198
399	1	16.71824869	28.4208175	26.18391456
400	1	26.21564498	37.91821493	7.189120277
401	1	26.21564498	9.426022657	16.68651713
402	1	35.7130424	37.91821493	16.68651713
403	1	35.7130424	9.426022657	7.189120277
404	1	26.21564498	37.91821493	26.18391456
405	1	26.21564498	9.426022657	35.68131198
406	1	35.7130424	37.91821493	35.68131198
407	1	35.7130424	9.426022657	26.18391456
408	1	26.21564498	18.92342008	7.189120277
409	1	26.21564498	28.4208175	16.68651713
410	1	35.7130424	18.92342008	16.68651713
411	1	35.7130424	28.4208175	7.189120277
412	1	26.21564498	18.92342008	26.18391456
413	1	26.21564498	28.4208175	35.68131198
414	1	35.7130424	18.92342008	35.68131198
415	1	35.7130424	28.4208175	26.18391456
416	1	7.201700473	2.388932374	9.36590344
417	1	7.201700473	11.88632923	18.86330143
418	1	16.6990979	2.388932374	18.86330143
419	1	16.6990979	11.88632923	9.36590344
420	1	7.201700473	2.388932374	28.36069885
421	1	7.201700473	11.88632923	37.85809627
422	1	16.6990979	2.388932374	37.85809627
423	1	16.6990979	11.88632923	28.36069885
424	1	7.201700473	21.38372665	9.36590344
425	1	7.201700473	30.88112408	18.86330143
426	1	16.6990979	21.38372665	18.86330143
427	1	16.6990979	30.88112408	9.36590344
428	1	7.201700473	21.38372665	28.36069885
429	1	7.201700473	30.88112408	37.85809627
430	1	16.6990979	21.38372665	37.85809627
431	1	16.6990979	30.88112408	28.36069885
432	1	26.19649532	2.388932374	9.36590344
433	1	26.19649532	11.88632923	18.86330143
434	1	35.69389274	2.388932374	18.86330143
435	1	35.69389274	11.88632923	9.36590344
436	1	26.19649532	2.388932374	28.36069885
437	1	26.19649532	11.88632923	37.85809627
438	1	35.69389274	2.388932374	37.85809627
439	1	35.69389274	11.88632923	28.36069885
440	1	26.19649532	21.38372665	9.36590344
441	1	26.19649532	30.88112408	18.86330143
442	1	35.69389274	21.38372665	18.86330143
443	1	35.69389274	30.88112408	9.36590344
444	1	26.19649532	21.38372665	28.36069885
445	1	26.19649532	30.88112408	37.85809627
446	1	35.69389274	21.38372665	37.85809627
447	1	35.69389274	30.88112408	28.36069885
448	1	7.235801108	4.750211301	11.80573741
449	1	7.235801108	14.24760872	21.3031337
450	1	16.7331991	4.750211301	21.3031337
451	1	16.7331991	14.24760872	11.80573741
452	1	7.235801108	4.750211301	30.80053112
453	1	7.235801108	14.24760872	2.308339982
454	1	16.7331991	4.750211301	2.308339982
455	1	16.7331991	14.24760872	30.80053112
456	1	7.235801108	23.74500615	11.80573741
457	1	7.235801108	33.24240357	21.3031337
458	1	16.7331991	23.74500615	21.3031337
459	1	16.7331991	33.24240357	11.80573741
460	1	7.235801108	23.74500615	30.80053112
461	1	7.235801108	33.24240357	2.308339982
462	1	16.7331991	23.74500615	2.308339982
463	1	16.7331991	33.24240357	30.80053112
464	1	26.23059652	4.750211301	11.80573741
465	1	26.23059652	14.24760872	21.3031337
466	1	35.72799394	4.750211301	21.3031337
467	1	35.72799394	14.24760872	11.80573741
468	1	26.23059652	4.750211301	30.80053112
469	1	26.23059652	14.24760872	2.308339982
470	1	35.72799394	4.750211301	2.308339982
471	1	35.72799394	14.24760872	30.80053112
472	1	26.23059652	23.74500615	11.80573741
473	1	26.23059652	33.24240357	21.3031337
474	1	35.72799394	23.74500615	21.3031337
475	1	35.72799394	33.24240357	11.80573741
476	1	26.23059652	23.74500615	30.80053112
477	1	26.23059652	33.24240357	2.308339982
478	1	35.72799394	23.74500615	2.308339982
479	1	35.72799394	33.24240357	30.80053112
480	1	7.197500092	7.10541213	14.28753159
481	1	7.197500092	16.60280955	23.78492901
482	1	16.69489752	7.10541213	23.78492901
483	1	16.69489752	16.60280955	14.28753159
484	1	7.197500092	7.10541213	33.28232643
485	1	7.197500092	16.60280955	4.790134162
486	1	16.69489752	7.10541213	4.790134162
487	1	16.69489752	16.60280955	33.28232643
488	1	7.197500092	26.10020811	14.28753159
489	1	7.197500092	35.59760553	23.78492901
490	1	16.69489752	26.10020811	23.78492901
491	1	16.69489752	35.59760553	14.28753159
492	1	7.197500092	26.10020811	33.28232643
493	1	7.197500092	35.59760553	4.790134162
494	1	16.69489752	26.10020811	4.790134162
495	1	16.69489752	35.59760553	33.28232643
496	1	26.19229494	7.10541213	14.28753159
497	1	26.19229494	16.60280955	23.78492901
498	1	35.68969236	7.10541213	23.78492901
499	1	35.68969236	16.60280955	14.28753159
500	1	26.19229494	7.10541213	33.28232643
501	1	26.19229494	16.60280955	4.790134162
502	1	35.68969236	7.10541213	4.790134162
503	1	35.68969236	16.60280955	33.28232643
504	1	26.19229494	26.10020811	14.28753159
505	1	26.19229494	35.59760553	23.78492901
506	1	35.68969236	26.10020811	23.78492901
507	1	35.68969236	35.59760553	14.28753159
508	1	26.19229494	26.10020811	33.28232643
509	1	26.19229494	35.59760553	4.790134162
510	1	35.68969236	26.10020811	4.790134162
511	1	35.68969236	35.59760553	33.28232643
512	1	2.232075623	2.29828058	0.073615837
513	1	2.232075623	11.795678	9.571012768
514	1	11.72947276	2.29828058	9.571012768
515	1	11.72947276	11.795678	0.073615837
516	1	2.232075623	2.29828058	19.06841132
517	1	2.232075623	11.795678	28.56580875
518	1	11.72947276	2.29828058	28.56580875
519	1	11.72947276	11.795678	19.06841132
520	1	2.232075623	21.29307543	0.073615837
521	1	2.232075623	30.79047285	9.571012768
522	1	11.72947276	21.29307543	9.571012768
523	1	11.72947276	30.79047285	0.073615837
524	1	2.232075623	21.29307543	19.06841132
525	1	2.232075623	30.79047285	28.56580875
526	1	11.72947276	21.29307543	28.56580875
527	1	11.72947276	30.79047285	19.06841132
528	1	21.22687019	2.29828058	0.073615837
529	1	21.22687019	11.795678	9.571012768
530	1	30.72426761	2.29828058	9.571012768
531	1	30.72426761	11.795678	0.073615837
532	1	21.22687019	2.29828058	19.06841132
533	1	21.22687019	11.795678	28.56580875
534	1	30.72426761	2.29828058	28.56580875
535	1	30.72426761	11.795678	19.06841132
536	1	21.22687019	21.29307543	0.073615837
537	1	21.22687019	30.79047285	9.571012768
538	1	30.72426761	21.29307543	9.571012768
539	1	30.72426761	30.79047285	0.073615837
540	1	21.22687019	21.29307543	19.06841132
541	1	21.22687019	30.79047285	28.56580875
542	1	30.72426761	21.29307543	28.56580875
543	1	30.72426761	30.79047285	19.06841132
544	1	2.367006049	4.693878936	2.351532006
545	1	2.367006049	14.19127608	11.84892886
546	1	11.86440347	4.693878936	11.84892886
547	1	11.86440347	14.19127608	2.351532006
548	1	2.367006049	4.693878936	21.34632629
549	1	2.367006049	14.19127608	30.84372371
550	1	11.86440347	4.693878936	30.84372371
551	1	11.86440347	14.19127608	21.34632629
552	1	2.367006049	23.6886735	2.351532006
553	1	2.367006049	33.18607092	11.84892886
554	1	11.86440347	23.6886735	11.84892886
555	1	11.86440347	33.18607092	2.351532006
556	1	2.367006049	23.6886735	21.34632629
557	1	2.367006049	33.18607092	30.84372371
558	1	11.86440347	23.6886735	30.84372371
559	1	11.86440347	33.18607092	21.34632629
560	1	21.3618009	4.693878936	2.351532006
561	1	21.3618009	14.19127608	11.84892886
562	1	30.85919832	4.693878936	11.84892886
563	1	30.85919832	14.19127608	2.351532006
564	1	21.3618009	4.693878936	21.34632629
565	1	21.3618009	14.19127608	30.84372371
566	1	30.85919832	4.693878936	30.84372371
567	1	30.85919832	14.19127608	21.34632629
568	1	21.3618009	23.6886735	2.351532006
569	1	21.3618009	33.18607092	11.84892886
570	1	30.85919832	23.6886735	11.84892886
571	1	30.85919832	33.18607092	2.351532006
572	1	21.3618009	23.6886735	21.34632629
573	1	21.3618009	33.18607092	30.84372371
574	1	30.85919832	23.6886735	30.84372371
575	1	30.85919832	33.18607092	21.34632629
576	1	2.348722082	7.073538489	4.786270038
577	1	2.348722082	16.57093535	14.28366746
578	1	11.84611993	7.073538489	14.28366746
579	1	11.84611993	16.57093535	4.786270038
580	1	2.348722082	7.073538489	23.78106375
581	1	2.348722082	16.57093535	33.27846117
582	1	11.84611993	7.073538489	33.27846117
583	1	11.84611993	16.57093535	23.78106375
584	1	2.348722082	26.06833277	4.786270038
585	1	2.348722082	35.56573019	14.28366746
586	1	11.84611993	26.06833277	14.28366746
587	1	11.84611993	35.56573019	4.786270038
588	1	2.348722082	26.06833277	23.78106375
589	1	2.348722082	35.56573019	33.27846117
590	1	11.84611993	26.06833277	33.27846117
591	1	11.84611993	35.56573019	23.78106375
592	1	21.34351622	7.073538489	4.786270038
593	1	21.34351622	16.57093535	14.28366746
594	1	30.84091364	7.073538489	14.28366746
595	1	30.84091364	16.57093535	4.786270038
596	1	21.34351622	7.073538489	23.78106375
597	1	21.34351622	16.57093535	33.27846117
598	1	30.84091364	7.073538489	33.27846117
599	1	30.84091364	16.57093535	23.78106375
600	1	21.34351622	26.06833277	4.786270038
601	1	21.34351622	35.56573019	14.28366746
602	1	30.84091364	26.06833277	14.28366746
603	1	30.84091364	35.56573019	4.786270038
604	1	21.34351622	26.06833277	23.78106375
605	1	21.34351622	35.56573019	33.27846117
606	1	30.84091364	26.06833277	33.27846117
607	1	30.84091364	35.56573019	23.78106375
608	1	2.323424697	9.475752444	7.074286859
609	1	2.323424697	18.97314987	16.57168485
610	1	11.82082254	9.475752444	16.57168485
611	1	11.82082254	18.97314987	7.074286859
612	1	2.323424697	9.475752444	26.06908227
613	1	2.323424697	18.97314987	35.56647969
614	1	11.82082254	9.475752444	35.56647969
615	1	11.82082254	18.97314987	26.06908227
616	1	2.323424697	28.47054729	7.074286859
617	1	2.323424697	37.96794471	16.57168485
618	1	11.82082254	28.47054729	16.57168485
619	1	11.82082254	37.96794471	7.074286859
620	1	2.323424697	28.47054729	26.06908227
621	1	2.323424697	37.96794471	35.56647969
622	1	11.82082254	28.47054729	35.56647969
623	1	11.82082254	37.96794471	26.06908227
624	1	21.31821884	9.475752444	7.074286859
625	1	21.31821884	18.97314987	16.57168485
626	1	30.81561626	9.475752444	16.57168485
627	1	30.81561626	18.97314987	7.074286859
628	1	21.31821884	9.475752444	26.06908227
629	1	21.31821884	18.97314987	35.56647969
630	1	30.81561626	9.475752444	35.56647969
631	1	30.81561626	18.97314987	26.06908227
632	1	21.31821884	28.47054729	7.074286859
633	1	21.31821884	37.96794471	16.57168485
634	1	30.81561626	28.47054729	16.57168485
635	1	30.81561626	37.96794471	7.074286859
636	1	21.31821884	28.47054729	26.06908227
637	1	21.31821884	37.96794471	35.56647969
638	1	30.81561626	28.47054729	35.56647969
639	1	30.81561626	37.96794471	26.06908227
640	1	4.744103201	2.42792232	2.44783535
641	1	4.744103201	11.92531918	11.94523306
642	1	14.24150062	2.42792232	11.94523306
643	1	14.24150062	11.92531918	2.44783535
644	1	4.744103201	2.42792232	21.44262935
645	1	4.744103201	11.92531918	30.94002677
646	1	14.24150062	2.42792232	30.94002677
647	1	14.24150062	11.92531918	21.44262935
648	1	4.744103201	21.4227166	2.44783535
649	1	4.744103201	30.92011402	11.94523306
650	1	14.24150062	21.4227166	11.94523306
651	1	14.24150062	30.92011402	2.44783535
652	1	4.744103201	21.4227166	21.44262935
653	1	4.744103201	30.92011402	30.94002677
654	1	14.24150062	21.4227166	30.94002677
655	1	14.24150062	30.92011402	21.44262935
656	1	23.73889691	2.42792232	2.44783535
657	1	23.73889691	11.92531918	11.94523306
658	1	33.23629434	2.42792232	11.94523306
659	1	33.23629434	11.92531918	2.44783535
660	1	23.73889691	2.42792232	21.44262935
661	1	23.73889691	11.92531918	30.94002677
662	1	33.23629434	2.42792232	30.94002677
663	1	33.23629434	11.92531918	21.44262935
664	1	23.73889691	21.4227166	2.44783535
665	1	23.73889691	30.92011402	11.94523306
666	1	33.23629434	21.4227166	11.94523306
667	1	33.23629434	30.92011402	2.44783535
668	1	23.73889691	21.4227166	21.44262935
669	1	23.73889691	30.92011402	30.94002677
670	1	33.23629434	21.4227166	30.94002677
671	1	33.23629434	30.92011402	21.44262935
672	1	4.828098921	4.762078791	4.831896812
673	1	4.828098921	14.25947621	14.32929423
674	1	14.32549578	4.762078791	14.32929423
675	1	14.32549578	14.25947621	4.831896812
676	1	4.828098921	4.762078791	23.82669053
677	1	4.828098921	14.25947621	33.32408795
678	1	14.32549578	4.762078791	33.32408795
679	1	14.32549578	14.25947621	23.82669053
680	1	4.828098921	23.75687364	4.831896812
681	1	4.828098921	33.25427106	14.32929423
682	1	14.32549578	23.75687364	14.32929423
683	1	14.32549578	33.25427106	4.831896812
684	1	4.828098921	23.75687364	23.82669053
685	1	4.828098921	33.25427106	33.32408795
686	1	14.32549578	23.75687364	33.32408795
687	1	14.32549578	33.25427106	23.82669053
688	1	23.8228932	4.762078791	4.831896812
689	1	23.8228932	14.25947621	14.32929423
690	1	33.32029062	4.762078791	14.32929423
691	1	33.32029062	14.25947621	4.831896812
692	1	23.8228932	4.762078791	23.82669053
693	1	23.8228932	14.25947621	33.32408795
694	1	33.32029062	4.762078791	33.32408795
695	1	33.32029062	14.25947621	23.82669053
696	1	23.8228932	23.75687364	4.831896812
697	1	23.8228932	33.25427106	14.32929423
698	1	33.32029062	23.75687364	14.32929423
699	1	33.32029062	33.25427106	4.831896812
700	1	23.8228932	23.75687364	23.82669053
701	1	23.8228932	33.25427106	33.32408795
702	1	33.32029062	23.75687364	33.32408795
703	1	33.32029062	33.25427106	23.82669053
704	1	4.916777328	7.181983593	7.265166409
705	1	4.916777328	16.67938102	16.76256327
706	1	14.41417475	7.181983593	16.76256327
707	1	14.41417475	16.67938102	7.265166409
708	1	4.916777328	7.181983593	26.25996069
709	1	4.916777328	16.67938102	35.75735811
710	1	14.41417475	7.181983593	35.75735811
711	1	14.41417475	16.67938102	26.25996069
712	1	4.916777328	26.17677957	7.265166409
713	1	4.916777328	35.67417699	16.76256327