 # File generated with MATLAB code by Hao

4096  atoms
1 atom types

0.000000 28.2890834808 xlo xhi
0.000000 28.2890834808 ylo yhi
0.000000 28.2890834808 zlo zhi

Masses

1 12.011000

Atoms

1	1	0	0	0
2	1	0	1.768067718	1.768067718
3	1	1.768067718	0	1.768067718
4	1	1.768067718	1.768067718	0
5	1	0	0	3.536135435
6	1	0	1.768067718	5.304203153
7	1	1.768067718	0	5.304203153
8	1	1.768067718	1.768067718	3.536135435
9	1	0	0	7.07227087
10	1	0	1.768067718	8.840338588
11	1	1.768067718	0	8.840338588
12	1	1.768067718	1.768067718	7.07227087
13	1	0	0	10.60840631
14	1	0	1.768067718	12.37647402
15	1	1.768067718	0	12.37647402
16	1	1.768067718	1.768067718	10.60840631
17	1	0	0	14.14454174
18	1	0	1.768067718	15.91260946
19	1	1.768067718	0	15.91260946
20	1	1.768067718	1.768067718	14.14454174
21	1	0	0	17.68067718
22	1	0	1.768067718	19.44874489
23	1	1.768067718	0	19.44874489
24	1	1.768067718	1.768067718	17.68067718
25	1	0	0	21.21681261
26	1	0	1.768067718	22.98488033
27	1	1.768067718	0	22.98488033
28	1	1.768067718	1.768067718	21.21681261
29	1	0	0	24.75294805
30	1	0	1.768067718	26.52101576
31	1	1.768067718	0	26.52101576
32	1	1.768067718	1.768067718	24.75294805
33	1	0	3.536135435	0
34	1	0	5.304203153	1.768067718
35	1	1.768067718	3.536135435	1.768067718
36	1	1.768067718	5.304203153	0
37	1	0	3.536135435	3.536135435
38	1	0	5.304203153	5.304203153
39	1	1.768067718	3.536135435	5.304203153
40	1	1.768067718	5.304203153	3.536135435
41	1	0	3.536135435	7.07227087
42	1	0	5.304203153	8.840338588
43	1	1.768067718	3.536135435	8.840338588
44	1	1.768067718	5.304203153	7.07227087
45	1	0	3.536135435	10.60840631
46	1	0	5.304203153	12.37647402
47	1	1.768067718	3.536135435	12.37647402
48	1	1.768067718	5.304203153	10.60840631
49	1	0	3.536135435	14.14454174
50	1	0	5.304203153	15.91260946
51	1	1.768067718	3.536135435	15.91260946
52	1	1.768067718	5.304203153	14.14454174
53	1	0	3.536135435	17.68067718
54	1	0	5.304203153	19.44874489
55	1	1.768067718	3.536135435	19.44874489
56	1	1.768067718	5.304203153	17.68067718
57	1	0	3.536135435	21.21681261
58	1	0	5.304203153	22.98488033
59	1	1.768067718	3.536135435	22.98488033
60	1	1.768067718	5.304203153	21.21681261
61	1	0	3.536135435	24.75294805
62	1	0	5.304203153	26.52101576
63	1	1.768067718	3.536135435	26.52101576
64	1	1.768067718	5.304203153	24.75294805
65	1	0	7.07227087	0
66	1	0	8.840338588	1.768067718
67	1	1.768067718	7.07227087	1.768067718
68	1	1.768067718	8.840338588	0
69	1	0	7.07227087	3.536135435
70	1	0	8.840338588	5.304203153
71	1	1.768067718	7.07227087	5.304203153
72	1	1.768067718	8.840338588	3.536135435
73	1	0	7.07227087	7.07227087
74	1	0	8.840338588	8.840338588
75	1	1.768067718	7.07227087	8.840338588
76	1	1.768067718	8.840338588	7.07227087
77	1	0	7.07227087	10.60840631
78	1	0	8.840338588	12.37647402
79	1	1.768067718	7.07227087	12.37647402
80	1	1.768067718	8.840338588	10.60840631
81	1	0	7.07227087	14.14454174
82	1	0	8.840338588	15.91260946
83	1	1.768067718	7.07227087	15.91260946
84	1	1.768067718	8.840338588	14.14454174
85	1	0	7.07227087	17.68067718
86	1	0	8.840338588	19.44874489
87	1	1.768067718	7.07227087	19.44874489
88	1	1.768067718	8.840338588	17.68067718
89	1	0	7.07227087	21.21681261
90	1	0	8.840338588	22.98488033
91	1	1.768067718	7.07227087	22.98488033
92	1	1.768067718	8.840338588	21.21681261
93	1	0	7.07227087	24.75294805
94	1	0	8.840338588	26.52101576
95	1	1.768067718	7.07227087	26.52101576
96	1	1.768067718	8.840338588	24.75294805
97	1	0	10.60840631	0
98	1	0	12.37647402	1.768067718
99	1	1.768067718	10.60840631	1.768067718
100	1	1.768067718	12.37647402	0
101	1	0	10.60840631	3.536135435
102	1	0	12.37647402	5.304203153
103	1	1.768067718	10.60840631	5.304203153
104	1	1.768067718	12.37647402	3.536135435
105	1	0	10.60840631	7.07227087
106	1	0	12.37647402	8.840338588
107	1	1.768067718	10.60840631	8.840338588
108	1	1.768067718	12.37647402	7.07227087
109	1	0	10.60840631	10.60840631
110	1	0	12.37647402	12.37647402
111	1	1.768067718	10.60840631	12.37647402
112	1	1.768067718	12.37647402	10.60840631
113	1	0	10.60840631	14.14454174
114	1	0	12.37647402	15.91260946
115	1	1.768067718	10.60840631	15.91260946
116	1	1.768067718	12.37647402	14.14454174
117	1	0	10.60840631	17.68067718
118	1	0	12.37647402	19.44874489
119	1	1.768067718	10.60840631	19.44874489
120	1	1.768067718	12.37647402	17.68067718
121	1	0	10.60840631	21.21681261
122	1	0	12.37647402	22.98488033
123	1	1.768067718	10.60840631	22.98488033
124	1	1.768067718	12.37647402	21.21681261
125	1	0	10.60840631	24.75294805
126	1	0	12.37647402	26.52101576
127	1	1.768067718	10.60840631	26.52101576
128	1	1.768067718	12.37647402	24.75294805
129	1	0	14.14454174	0
130	1	0	15.91260946	1.768067718
131	1	1.768067718	14.14454174	1.768067718
132	1	1.768067718	15.91260946	0
133	1	0	14.14454174	3.536135435
134	1	0	15.91260946	5.304203153
135	1	1.768067718	14.14454174	5.304203153
136	1	1.768067718	15.91260946	3.536135435
137	1	0	14.14454174	7.07227087
138	1	0	15.91260946	8.840338588
139	1	1.768067718	14.14454174	8.840338588
140	1	1.768067718	15.91260946	7.07227087
141	1	0	14.14454174	10.60840631
142	1	0	15.91260946	12.37647402
143	1	1.768067718	14.14454174	12.37647402
144	1	1.768067718	15.91260946	10.60840631
145	1	0	14.14454174	14.14454174
146	1	0	15.91260946	15.91260946
147	1	1.768067718	14.14454174	15.91260946
148	1	1.768067718	15.91260946	14.14454174
149	1	0	14.14454174	17.68067718
150	1	0	15.91260946	19.44874489
151	1	1.768067718	14.14454174	19.44874489
152	1	1.768067718	15.91260946	17.68067718
153	1	0	14.14454174	21.21681261
154	1	0	15.91260946	22.98488033
155	1	1.768067718	14.14454174	22.98488033
156	1	1.768067718	15.91260946	21.21681261
157	1	0	14.14454174	24.75294805
158	1	0	15.91260946	26.52101576
159	1	1.768067718	14.14454174	26.52101576
160	1	1.768067718	15.91260946	24.75294805
161	1	0	17.68067718	0
162	1	0	19.44874489	1.768067718
163	1	1.768067718	17.68067718	1.768067718
164	1	1.768067718	19.44874489	0
165	1	0	17.68067718	3.536135435
166	1	0	19.44874489	5.304203153
167	1	1.768067718	17.68067718	5.304203153
168	1	1.768067718	19.44874489	3.536135435
169	1	0	17.68067718	7.07227087
170	1	0	19.44874489	8.840338588
171	1	1.768067718	17.68067718	8.840338588
172	1	1.768067718	19.44874489	7.07227087
173	1	0	17.68067718	10.60840631
174	1	0	19.44874489	12.37647402
175	1	1.768067718	17.68067718	12.37647402
176	1	1.768067718	19.44874489	10.60840631
177	1	0	17.68067718	14.14454174
178	1	0	19.44874489	15.91260946
179	1	1.768067718	17.68067718	15.91260946
180	1	1.768067718	19.44874489	14.14454174
181	1	0	17.68067718	17.68067718
182	1	0	19.44874489	19.44874489
183	1	1.768067718	17.68067718	19.44874489
184	1	1.768067718	19.44874489	17.68067718
185	1	0	17.68067718	21.21681261
186	1	0	19.44874489	22.98488033
187	1	1.768067718	17.68067718	22.98488033
188	1	1.768067718	19.44874489	21.21681261
189	1	0	17.68067718	24.75294805
190	1	0	19.44874489	26.52101576
191	1	1.768067718	17.68067718	26.52101576
192	1	1.768067718	19.44874489	24.75294805
193	1	0	21.21681261	0
194	1	0	22.98488033	1.768067718
195	1	1.768067718	21.21681261	1.768067718
196	1	1.768067718	22.98488033	0
197	1	0	21.21681261	3.536135435
198	1	0	22.98488033	5.304203153
199	1	1.768067718	21.21681261	5.304203153
200	1	1.768067718	22.98488033	3.536135435
201	1	0	21.21681261	7.07227087
202	1	0	22.98488033	8.840338588
203	1	1.768067718	21.21681261	8.840338588
204	1	1.768067718	22.98488033	7.07227087
205	1	0	21.21681261	10.60840631
206	1	0	22.98488033	12.37647402
207	1	1.768067718	21.21681261	12.37647402
208	1	1.768067718	22.98488033	10.60840631
209	1	0	21.21681261	14.14454174
210	1	0	22.98488033	15.91260946
211	1	1.768067718	21.21681261	15.91260946
212	1	1.768067718	22.98488033	14.14454174
213	1	0	21.21681261	17.68067718
214	1	0	22.98488033	19.44874489
215	1	1.768067718	21.21681261	19.44874489
216	1	1.768067718	22.98488033	17.68067718
217	1	0	21.21681261	21.21681261
218	1	0	22.98488033	22.98488033
219	1	1.768067718	21.21681261	22.98488033
220	1	1.768067718	22.98488033	21.21681261
221	1	0	21.21681261	24.75294805
222	1	0	22.98488033	26.52101576
223	1	1.768067718	21.21681261	26.52101576
224	1	1.768067718	22.98488033	24.75294805
225	1	0	24.75294805	0
226	1	0	26.52101576	1.768067718
227	1	1.768067718	24.75294805	1.768067718
228	1	1.768067718	26.52101576	0
229	1	0	24.75294805	3.536135435
230	1	0	26.52101576	5.304203153
231	1	1.768067718	24.75294805	5.304203153
232	1	1.768067718	26.52101576	3.536135435
233	1	0	24.75294805	7.07227087
234	1	0	26.52101576	8.840338588
235	1	1.768067718	24.75294805	8.840338588
236	1	1.768067718	26.52101576	7.07227087
237	1	0	24.75294805	10.60840631
238	1	0	26.52101576	12.37647402
239	1	1.768067718	24.75294805	12.37647402
240	1	1.768067718	26.52101576	10.60840631
241	1	0	24.75294805	14.14454174
242	1	0	26.52101576	15.91260946
243	1	1.768067718	24.75294805	15.91260946
244	1	1.768067718	26.52101576	14.14454174
245	1	0	24.75294805	17.68067718
246	1	0	26.52101576	19.44874489
247	1	1.768067718	24.75294805	19.44874489
248	1	1.768067718	26.52101576	17.68067718
249	1	0	24.75294805	21.21681261
250	1	0	26.52101576	22.98488033
251	1	1.768067718	24.75294805	22.98488033
252	1	1.768067718	26.52101576	21.21681261
253	1	0	24.75294805	24.75294805
254	1	0	26.52101576	26.52101576
255	1	1.768067718	24.75294805	26.52101576
256	1	1.768067718	26.52101576	24.75294805
257	1	3.536135435	0	0
258	1	3.536135435	1.768067718	1.768067718
259	1	5.304203153	0	1.768067718
260	1	5.304203153	1.768067718	0
261	1	3.536135435	0	3.536135435
262	1	3.536135435	1.768067718	5.304203153
263	1	5.304203153	0	5.304203153
264	1	5.304203153	1.768067718	3.536135435
265	1	3.536135435	0	7.07227087
266	1	3.536135435	1.768067718	8.840338588
267	1	5.304203153	0	8.840338588
268	1	5.304203153	1.768067718	7.07227087
269	1	3.536135435	0	10.60840631
270	1	3.536135435	1.768067718	12.37647402
271	1	5.304203153	0	12.37647402
272	1	5.304203153	1.768067718	10.60840631
273	1	3.536135435	0	14.14454174
274	1	3.536135435	1.768067718	15.91260946
275	1	5.304203153	0	15.91260946
276	1	5.304203153	1.768067718	14.14454174
277	1	3.536135435	0	17.68067718
278	1	3.536135435	1.768067718	19.44874489
279	1	5.304203153	0	19.44874489
280	1	5.304203153	1.768067718	17.68067718
281	1	3.536135435	0	21.21681261
282	1	3.536135435	1.768067718	22.98488033
283	1	5.304203153	0	22.98488033
284	1	5.304203153	1.768067718	21.21681261
285	1	3.536135435	0	24.75294805
286	1	3.536135435	1.768067718	26.52101576
287	1	5.304203153	0	26.52101576
288	1	5.304203153	1.768067718	24.75294805
289	1	3.536135435	3.536135435	0
290	1	3.536135435	5.304203153	1.768067718
291	1	5.304203153	3.536135435	1.768067718
292	1	5.304203153	5.304203153	0
293	1	3.536135435	3.536135435	3.536135435
294	1	3.536135435	5.304203153	5.304203153
295	1	5.304203153	3.536135435	5.304203153
296	1	5.304203153	5.304203153	3.536135435
297	1	3.536135435	3.536135435	7.07227087
298	1	3.536135435	5.304203153	8.840338588
299	1	5.304203153	3.536135435	8.840338588
300	1	5.304203153	5.304203153	7.07227087
301	1	3.536135435	3.536135435	10.60840631
302	1	3.536135435	5.304203153	12.37647402
303	1	5.304203153	3.536135435	12.37647402
304	1	5.304203153	5.304203153	10.60840631
305	1	3.536135435	3.536135435	14.14454174
306	1	3.536135435	5.304203153	15.91260946
307	1	5.304203153	3.536135435	15.91260946
308	1	5.304203153	5.304203153	14.14454174
309	1	3.536135435	3.536135435	17.68067718
310	1	3.536135435	5.304203153	19.44874489
311	1	5.304203153	3.536135435	19.44874489
312	1	5.304203153	5.304203153	17.68067718
313	1	3.536135435	3.536135435	21.21681261
314	1	3.536135435	5.304203153	22.98488033
315	1	5.304203153	3.536135435	22.98488033
316	1	5.304203153	5.304203153	21.21681261
317	1	3.536135435	3.536135435	24.75294805
318	1	3.536135435	5.304203153	26.52101576
319	1	5.304203153	3.536135435	26.52101576
320	1	5.304203153	5.304203153	24.75294805
321	1	3.536135435	7.07227087	0
322	1	3.536135435	8.840338588	1.768067718
323	1	5.304203153	7.07227087	1.768067718
324	1	5.304203153	8.840338588	0
325	1	3.536135435	7.07227087	3.536135435
326	1	3.536135435	8.840338588	5.304203153
327	1	5.304203153	7.07227087	5.304203153
328	1	5.304203153	8.840338588	3.536135435
329	1	3.536135435	7.07227087	7.07227087
330	1	3.536135435	8.840338588	8.840338588
331	1	5.304203153	7.07227087	8.840338588
332	1	5.304203153	8.840338588	7.07227087
333	1	3.536135435	7.07227087	10.60840631
334	1	3.536135435	8.840338588	12.37647402
335	1	5.304203153	7.07227087	12.37647402
336	1	5.304203153	8.840338588	10.60840631
337	1	3.536135435	7.07227087	14.14454174
338	1	3.536135435	8.840338588	15.91260946
339	1	5.304203153	7.07227087	15.91260946
340	1	5.304203153	8.840338588	14.14454174
341	1	3.536135435	7.07227087	17.68067718
342	1	3.536135435	8.840338588	19.44874489
343	1	5.304203153	7.07227087	19.44874489
344	1	5.304203153	8.840338588	17.68067718
345	1	3.536135435	7.07227087	21.21681261
346	1	3.536135435	8.840338588	22.98488033
347	1	5.304203153	7.07227087	22.98488033
348	1	5.304203153	8.840338588	21.21681261
349	1	3.536135435	7.07227087	24.75294805
350	1	3.536135435	8.840338588	26.52101576
351	1	5.304203153	7.07227087	26.52101576
352	1	5.304203153	8.840338588	24.75294805
353	1	3.536135435	10.60840631	0
354	1	3.536135435	12.37647402	1.768067718
355	1	5.304203153	10.60840631	1.768067718
356	1	5.304203153	12.37647402	0
357	1	3.536135435	10.60840631	3.536135435
358	1	3.536135435	12.37647402	5.304203153
359	1	5.304203153	10.60840631	5.304203153
360	1	5.304203153	12.37647402	3.536135435
361	1	3.536135435	10.60840631	7.07227087
362	1	3.536135435	12.37647402	8.840338588
363	1	5.304203153	10.60840631	8.840338588
364	1	5.304203153	12.37647402	7.07227087
365	1	3.536135435	10.60840631	10.60840631
366	1	3.536135435	12.37647402	12.37647402
367	1	5.304203153	10.60840631	12.37647402
368	1	5.304203153	12.37647402	10.60840631
369	1	3.536135435	10.60840631	14.14454174
370	1	3.536135435	12.37647402	15.91260946
371	1	5.304203153	10.60840631	15.91260946
372	1	5.304203153	12.37647402	14.14454174
373	1	3.536135435	10.60840631	17.68067718
374	1	3.536135435	12.37647402	19.44874489
375	1	5.304203153	10.60840631	19.44874489
376	1	5.304203153	12.37647402	17.68067718
377	1	3.536135435	10.60840631	21.21681261
378	1	3.536135435	12.37647402	22.98488033
379	1	5.304203153	10.60840631	22.98488033
380	1	5.304203153	12.37647402	21.21681261
381	1	3.536135435	10.60840631	24.75294805
382	1	3.536135435	12.37647402	26.52101576
383	1	5.304203153	10.60840631	26.52101576
384	1	5.304203153	12.37647402	24.75294805
385	1	3.536135435	14.14454174	0
386	1	3.536135435	15.91260946	1.768067718
387	1	5.304203153	14.14454174	1.768067718
388	1	5.304203153	15.91260946	0
389	1	3.536135435	14.14454174	3.536135435
390	1	3.536135435	15.91260946	5.304203153
391	1	5.304203153	14.14454174	5.304203153
392	1	5.304203153	15.91260946	3.536135435
393	1	3.536135435	14.14454174	7.07227087
394	1	3.536135435	15.91260946	8.840338588
395	1	5.304203153	14.14454174	8.840338588
396	1	5.304203153	15.91260946	7.07227087
397	1	3.536135435	14.14454174	10.60840631
398	1	3.536135435	15.91260946	12.37647402
399	1	5.304203153	14.14454174	12.37647402
400	1	5.304203153	15.91260946	10.60840631
401	1	3.536135435	14.14454174	14.14454174
402	1	3.536135435	15.91260946	15.91260946
403	1	5.304203153	14.14454174	15.91260946
404	1	5.304203153	15.91260946	14.14454174
405	1	3.536135435	14.14454174	17.68067718
406	1	3.536135435	15.91260946	19.44874489
407	1	5.304203153	14.14454174	19.44874489
408	1	5.304203153	15.91260946	17.68067718
409	1	3.536135435	14.14454174	21.21681261
410	1	3.536135435	15.91260946	22.98488033
411	1	5.304203153	14.14454174	22.98488033
412	1	5.304203153	15.91260946	21.21681261
413	1	3.536135435	14.14454174	24.75294805
414	1	3.536135435	15.91260946	26.52101576
415	1	5.304203153	14.14454174	26.52101576
416	1	5.304203153	15.91260946	24.75294805
417	1	3.536135435	17.68067718	0
418	1	3.536135435	19.44874489	1.768067718
419	1	5.304203153	17.68067718	1.768067718
420	1	5.304203153	19.44874489	0
421	1	3.536135435	17.68067718	3.536135435
422	1	3.536135435	19.44874489	5.304203153
423	1	5.304203153	17.68067718	5.304203153
424	1	5.304203153	19.44874489	3.536135435
425	1	3.536135435	17.68067718	7.07227087
426	1	3.536135435	19.44874489	8.840338588
427	1	5.304203153	17.68067718	8.840338588
428	1	5.304203153	19.44874489	7.07227087
429	1	3.536135435	17.68067718	10.60840631
430	1	3.536135435	19.44874489	12.37647402
431	1	5.304203153	17.68067718	12.37647402
432	1	5.304203153	19.44874489	10.60840631
433	1	3.536135435	17.68067718	14.14454174
434	1	3.536135435	19.44874489	15.91260946
435	1	5.304203153	17.68067718	15.91260946
436	1	5.304203153	19.44874489	14.14454174
437	1	3.536135435	17.68067718	17.68067718
438	1	3.536135435	19.44874489	19.44874489
439	1	5.304203153	17.68067718	19.44874489
440	1	5.304203153	19.44874489	17.68067718
441	1	3.536135435	17.68067718	21.21681261
442	1	3.536135435	19.44874489	22.98488033
443	1	5.304203153	17.68067718	22.98488033
444	1	5.304203153	19.44874489	21.21681261
445	1	3.536135435	17.68067718	24.75294805
446	1	3.536135435	19.44874489	26.52101576
447	1	5.304203153	17.68067718	26.52101576
448	1	5.304203153	19.44874489	24.75294805
449	1	3.536135435	21.21681261	0
450	1	3.536135435	22.98488033	1.768067718
451	1	5.304203153	21.21681261	1.768067718
452	1	5.304203153	22.98488033	0
453	1	3.536135435	21.21681261	3.536135435
454	1	3.536135435	22.98488033	5.304203153
455	1	5.304203153	21.21681261	5.304203153
456	1	5.304203153	22.98488033	3.536135435
457	1	3.536135435	21.21681261	7.07227087
458	1	3.536135435	22.98488033	8.840338588
459	1	5.304203153	21.21681261	8.840338588
460	1	5.304203153	22.98488033	7.07227087
461	1	3.536135435	21.21681261	10.60840631
462	1	3.536135435	22.98488033	12.37647402
463	1	5.304203153	21.21681261	12.37647402
464	1	5.304203153	22.98488033	10.60840631
465	1	3.536135435	21.21681261	14.14454174
466	1	3.536135435	22.98488033	15.91260946
467	1	5.304203153	21.21681261	15.91260946
468	1	5.304203153	22.98488033	14.14454174
469	1	3.536135435	21.21681261	17.68067718
470	1	3.536135435	22.98488033	19.44874489
471	1	5.304203153	21.21681261	19.44874489
472	1	5.304203153	22.98488033	17.68067718
473	1	3.536135435	21.21681261	21.21681261
474	1	3.536135435	22.98488033	22.98488033
475	1	5.304203153	21.21681261	22.98488033
476	1	5.304203153	22.98488033	21.21681261
477	1	3.536135435	21.21681261	24.75294805
478	1	3.536135435	22.98488033	26.52101576
479	1	5.304203153	21.21681261	26.52101576
480	1	5.304203153	22.98488033	24.75294805
481	1	3.536135435	24.75294805	0
482	1	3.536135435	26.52101576	1.768067718
483	1	5.304203153	24.75294805	1.768067718
484	1	5.304203153	26.52101576	0
485	1	3.536135435	24.75294805	3.536135435
486	1	3.536135435	26.52101576	5.304203153
487	1	5.304203153	24.75294805	5.304203153
488	1	5.304203153	26.52101576	3.536135435
489	1	3.536135435	24.75294805	7.07227087
490	1	3.536135435	26.52101576	8.840338588
491	1	5.304203153	24.75294805	8.840338588
492	1	5.304203153	26.52101576	7.07227087
493	1	3.536135435	24.75294805	10.60840631
494	1	3.536135435	26.52101576	12.37647402
495	1	5.304203153	24.75294805	12.37647402
496	1	5.304203153	26.52101576	10.60840631
497	1	3.536135435	24.75294805	14.14454174
498	1	3.536135435	26.52101576	15.91260946
499	1	5.304203153	24.75294805	15.91260946
500	1	5.304203153	26.52101576	14.14454174
501	1	3.536135435	24.75294805	17.68067718
502	1	3.536135435	26.52101576	19.44874489
503	1	5.304203153	24.75294805	19.44874489
504	1	5.304203153	26.52101576	17.68067718
505	1	3.536135435	24.75294805	21.21681261
506	1	3.536135435	26.52101576	22.98488033
507	1	5.304203153	24.75294805	22.98488033
508	1	5.304203153	26.52101576	21.21681261
509	1	3.536135435	24.75294805	24.75294805
510	1	3.536135435	26.52101576	26.52101576
511	1	5.304203153	24.75294805	26.52101576
512	1	5.304203153	26.52101576	24.75294805
513	1	7.07227087	0	0
514	1	7.07227087	1.768067718	1.768067718
515	1	8.840338588	0	1.768067718
516	1	8.840338588	1.768067718	0
517	1	7.07227087	0	3.536135435
518	1	7.07227087	1.768067718	5.304203153
519	1	8.840338588	0	5.304203153
520	1	8.840338588	1.768067718	3.536135435
521	1	7.07227087	0	7.07227087
522	1	7.07227087	1.768067718	8.840338588
523	1	8.840338588	0	8.840338588
524	1	8.840338588	1.768067718	7.07227087
525	1	7.07227087	0	10.60840631
526	1	7.07227087	1.768067718	12.37647402
527	1	8.840338588	0	12.37647402
528	1	8.840338588	1.768067718	10.60840631
529	1	7.07227087	0	14.14454174
530	1	7.07227087	1.768067718	15.91260946
531	1	8.840338588	0	15.91260946
532	1	8.840338588	1.768067718	14.14454174
533	1	7.07227087	0	17.68067718
534	1	7.07227087	1.768067718	19.44874489
535	1	8.840338588	0	19.44874489
536	1	8.840338588	1.768067718	17.68067718
537	1	7.07227087	0	21.21681261
538	1	7.07227087	1.768067718	22.98488033
539	1	8.840338588	0	22.98488033
540	1	8.840338588	1.768067718	21.21681261
541	1	7.07227087	0	24.75294805
542	1	7.07227087	1.768067718	26.52101576
543	1	8.840338588	0	26.52101576
544	1	8.840338588	1.768067718	24.75294805
545	1	7.07227087	3.536135435	0
546	1	7.07227087	5.304203153	1.768067718
547	1	8.840338588	3.536135435	1.768067718
548	1	8.840338588	5.304203153	0
549	1	7.07227087	3.536135435	3.536135435
550	1	7.07227087	5.304203153	5.304203153
551	1	8.840338588	3.536135435	5.304203153
552	1	8.840338588	5.304203153	3.536135435
553	1	7.07227087	3.536135435	7.07227087
554	1	7.07227087	5.304203153	8.840338588
555	1	8.840338588	3.536135435	8.840338588
556	1	8.840338588	5.304203153	7.07227087
557	1	7.07227087	3.536135435	10.60840631
558	1	7.07227087	5.304203153	12.37647402
559	1	8.840338588	3.536135435	12.37647402
560	1	8.840338588	5.304203153	10.60840631
561	1	7.07227087	3.536135435	14.14454174
562	1	7.07227087	5.304203153	15.91260946
563	1	8.840338588	3.536135435	15.91260946
564	1	8.840338588	5.304203153	14.14454174
565	1	7.07227087	3.536135435	17.68067718
566	1	7.07227087	5.304203153	19.44874489
567	1	8.840338588	3.536135435	19.44874489
568	1	8.840338588	5.304203153	17.68067718
569	1	7.07227087	3.536135435	21.21681261
570	1	7.07227087	5.304203153	22.98488033
571	1	8.840338588	3.536135435	22.98488033
572	1	8.840338588	5.304203153	21.21681261
573	1	7.07227087	3.536135435	24.75294805
574	1	7.07227087	5.304203153	26.52101576
575	1	8.840338588	3.536135435	26.52101576
576	1	8.840338588	5.304203153	24.75294805
577	1	7.07227087	7.07227087	0
578	1	7.07227087	8.840338588	1.768067718
579	1	8.840338588	7.07227087	1.768067718
580	1	8.840338588	8.840338588	0
581	1	7.07227087	7.07227087	3.536135435
582	1	7.07227087	8.840338588	5.304203153
583	1	8.840338588	7.07227087	5.304203153
584	1	8.840338588	8.840338588	3.536135435
585	1	7.07227087	7.07227087	7.07227087
586	1	7.07227087	8.840338588	8.840338588
587	1	8.840338588	7.07227087	8.840338588
588	1	8.840338588	8.840338588	7.07227087
589	1	7.07227087	7.07227087	10.60840631
590	1	7.07227087	8.840338588	12.37647402
591	1	8.840338588	7.07227087	12.37647402
592	1	8.840338588	8.840338588	10.60840631
593	1	7.07227087	7.07227087	14.14454174
594	1	7.07227087	8.840338588	15.91260946
595	1	8.840338588	7.07227087	15.91260946
596	1	8.840338588	8.840338588	14.14454174
597	1	7.07227087	7.07227087	17.68067718
598	1	7.07227087	8.840338588	19.44874489
599	1	8.840338588	7.07227087	19.44874489
600	1	8.840338588	8.840338588	17.68067718
601	1	7.07227087	7.07227087	21.21681261
602	1	7.07227087	8.840338588	22.98488033
603	1	8.840338588	7.07227087	22.98488033
604	1	8.840338588	8.840338588	21.21681261
605	1	7.07227087	7.07227087	24.75294805
606	1	7.07227087	8.840338588	26.52101576
607	1	8.840338588	7.07227087	26.52101576
608	1	8.840338588	8.840338588	24.75294805
609	1	7.07227087	10.60840631	0
610	1	7.07227087	12.37647402	1.768067718
611	1	8.840338588	10.60840631	1.768067718
612	1	8.840338588	12.37647402	0
613	1	7.07227087	10.60840631	3.536135435
614	1	7.07227087	12.37647402	5.304203153
615	1	8.840338588	10.60840631	5.304203153
616	1	8.840338588	12.37647402	3.536135435
617	1	7.07227087	10.60840631	7.07227087
618	1	7.07227087	12.37647402	8.840338588
619	1	8.840338588	10.60840631	8.840338588
620	1	8.840338588	12.37647402	7.07227087
621	1	7.07227087	10.60840631	10.60840631
622	1	7.07227087	12.37647402	12.37647402
623	1	8.840338588	10.60840631	12.37647402
624	1	8.840338588	12.37647402	10.60840631
625	1	7.07227087	10.60840631	14.14454174
626	1	7.07227087	12.37647402	15.91260946
627	1	8.840338588	10.60840631	15.91260946
628	1	8.840338588	12.37647402	14.14454174
629	1	7.07227087	10.60840631	17.68067718
630	1	7.07227087	12.37647402	19.44874489
631	1	8.840338588	10.60840631	19.44874489
632	1	8.840338588	12.37647402	17.68067718
633	1	7.07227087	10.60840631	21.21681261
634	1	7.07227087	12.37647402	22.98488033
635	1	8.840338588	10.60840631	22.98488033
636	1	8.840338588	12.37647402	21.21681261
637	1	7.07227087	10.60840631	24.75294805
638	1	7.07227087	12.37647402	26.52101576
639	1	8.840338588	10.60840631	26.52101576
640	1	8.840338588	12.37647402	24.75294805
641	1	7.07227087	14.14454174	0
642	1	7.07227087	15.91260946	1.768067718
643	1	8.840338588	14.14454174	1.768067718
644	1	8.840338588	15.91260946	0
645	1	7.07227087	14.14454174	3.536135435
646	1	7.07227087	15.91260946	5.304203153
647	1	8.840338588	14.14454174	5.304203153
648	1	8.840338588	15.91260946	3.536135435
649	1	7.07227087	14.14454174	7.07227087
650	1	7.07227087	15.91260946	8.840338588
651	1	8.840338588	14.14454174	8.840338588
652	1	8.840338588	15.91260946	7.07227087
653	1	7.07227087	14.14454174	10.60840631
654	1	7.07227087	15.91260946	12.37647402
655	1	8.840338588	14.14454174	12.37647402
656	1	8.840338588	15.91260946	10.60840631
657	1	7.07227087	14.14454174	14.14454174
658	1	7.07227087	15.91260946	15.91260946
659	1	8.840338588	14.14454174	15.91260946
660	1	8.840338588	15.91260946	14.14454174
661	1	7.07227087	14.14454174	17.68067718
662	1	7.07227087	15.91260946	19.44874489
663	1	8.840338588	14.14454174	19.44874489
664	1	8.840338588	15.91260946	17.68067718
665	1	7.07227087	14.14454174	21.21681261
666	1	7.07227087	15.91260946	22.98488033
667	1	8.840338588	14.14454174	22.98488033
668	1	8.840338588	15.91260946	21.21681261
669	1	7.07227087	14.14454174	24.75294805
670	1	7.07227087	15.91260946	26.52101576
671	1	8.840338588	14.14454174	26.52101576
672	1	8.840338588	15.91260946	24.75294805
673	1	7.07227087	17.68067718	0
674	1	7.07227087	19.44874489	1.768067718
675	1	8.840338588	17.68067718	1.768067718
676	1	8.840338588	19.44874489	0
677	1	7.07227087	17.68067718	3.536135435
678	1	7.07227087	19.44874489	5.304203153
679	1	8.840338588	17.68067718	5.304203153
680	1	8.840338588	19.44874489	3.536135435
681	1	7.07227087	17.68067718	7.07227087
682	1	7.07227087	19.44874489	8.840338588
683	1	8.840338588	17.68067718	8.840338588
684	1	8.840338588	19.44874489	7.07227087
685	1	7.07227087	17.68067718	10.60840631
686	1	7.07227087	19.44874489	12.37647402
687	1	8.840338588	17.68067718	12.37647402
688	1	8.840338588	19.44874489	10.60840631
689	1	7.07227087	17.68067718	14.14454174
690	1	7.07227087	19.44874489	15.91260946
691	1	8.840338588	17.68067718	15.91260946
692	1	8.840338588	19.44874489	14.14454174
693	1	7.07227087	17.68067718	17.68067718
694	1	7.07227087	19.44874489	19.44874489
695	1	8.840338588	17.68067718	19.44874489
696	1	8.840338588	19.44874489	17.68067718
697	1	7.07227087	17.68067718	21.21681261
698	1	7.07227087	19.44874489	22.98488033
699	1	8.840338588	17.68067718	22.98488033
700	1	8.840338588	19.44874489	21.21681261
701	1	7.07227087	17.68067718	24.75294805
702	1	7.07227087	19.44874489	26.52101576
703	1	8.840338588	17.68067718	26.52101576
704	1	8.840338588	19.44874489	24.75294805
705	1	7.07227087	21.21681261	0
706	1	7.07227087	22.98488033	1.768067718
707	1	8.840338588	21.21681261	1.768067718
708	1	8.840338588	22.98488033	0
709	1	7.07227087	21.21681261	3.536135435
710	1	7.07227087	22.98488033	5.304203153
711	1	8.840338588	21.21681261	5.304203153
712	1	8.840338588	22.98488033	3.536135435
713	1	7.07227087	21.21681261	7.07227087
714	1	7.07227087	22.98488033	8.840338588
715	1	8.840338588	21.21681261	8.840338588
716	1	8.840338588	22.98488033	7.07227087
717	1	7.07227087	21.21681261	10.60840631
718	1	7.07227087	22.98488033	12.37647402
719	1	8.840338588	21.21681261	12.37647402
720	1	8.840338588	22.98488033	10.60840631
721	1	7.07227087	21.21681261	14.14454174
722	1	7.07227087	22.98488033	15.91260946
723	1	8.840338588	21.21681261	15.91260946
724	1	8.840338588	22.98488033	14.14454174
725	1	7.07227087	21.21681261	17.68067718
726	1	7.07227087	22.98488033	19.44874489
727	1	8.840338588	21.21681261	19.44874489
728	1	8.840338588	22.98488033	17.68067718
729	1	7.07227087	21.21681261	21.21681261
730	1	7.07227087	22.98488033	22.98488033
731	1	8.840338588	21.21681261	22.98488033
732	1	8.840338588	22.98488033	21.21681261
733	1	7.07227087	21.21681261	24.75294805
734	1	7.07227087	22.98488033	26.52101576
735	1	8.840338588	21.21681261	26.52101576
736	1	8.840338588	22.98488033	24.75294805
737	1	7.07227087	24.75294805	0
738	1	7.07227087	26.52101576	1.768067718
739	1	8.840338588	24.75294805	1.768067718
740	1	8.840338588	26.52101576	0
741	1	7.07227087	24.75294805	3.536135435
742	1	7.07227087	26.52101576	5.304203153
743	1	8.840338588	24.75294805	5.304203153
744	1	8.840338588	26.52101576	3.536135435
745	1	7.07227087	24.75294805	7.07227087
746	1	7.07227087	26.52101576	8.840338588
747	1	8.840338588	24.75294805	8.840338588
748	1	8.840338588	26.52101576	7.07227087
749	1	7.07227087	24.75294805	10.60840631
750	1	7.07227087	26.52101576	12.37647402
751	1	8.840338588	24.75294805	12.37647402
752	1	8.840338588	26.52101576	10.60840631
753	1	7.07227087	24.75294805	14.14454174
754	1	7.07227087	26.52101576	15.91260946
755	1	8.840338588	24.75294805	15.91260946
756	1	8.840338588	26.52101576	14.14454174
757	1	7.07227087	24.75294805	17.68067718
758	1	7.07227087	26.52101576	19.44874489
759	1	8.840338588	24.75294805	19.44874489
760	1	8.840338588	26.52101576	17.68067718
761	1	7.07227087	24.75294805	21.21681261
762	1	7.07227087	26.52101576	22.98488033
763	1	8.840338588	24.75294805	22.98488033
764	1	8.840338588	26.52101576	21.21681261
765	1	7.07227087	24.75294805	24.75294805
766	1	7.07227087	26.52101576	26.52101576
767	1	8.840338588	24.75294805	26.52101576
768	1	8.840338588	26.52101576	24.75294805
769	1	10.60840631	0	0
770	1	10.60840631	1.768067718	1.768067718
771	1	12.37647402	0	1.768067718